
     Program PWSCF v.7.2 starts on 13Feb2025 at 14:17:55 

     This program is part of the open-source Quantum ESPRESSO suite
     for quantum simulation of materials; please cite
         "P. Giannozzi et al., J. Phys.:Condens. Matter 21 395502 (2009);
         "P. Giannozzi et al., J. Phys.:Condens. Matter 29 465901 (2017);
         "P. Giannozzi et al., J. Chem. Phys. 152 154105 (2020);
          URL http://www.quantum-espresso.org", 
     in publications or presentations arising from this work. More details at
     http://www.quantum-espresso.org/quote

     Serial version
     242250 MiB available memory on the printing compute node when the environment starts

     Reading input from input_tmp.in
Warning: card &CELL ignored
Warning: card / ignored
Warning: card &FCP ignored
Warning: card / ignored
Warning: card &RISM ignored
Warning: card / ignored

     Current dimensions of program PWSCF are:
     Max number of different atomic species (ntypx) = 10
     Max number of k-points (npk) =  40000
     Max angular momentum in pseudopotentials (lmaxx) =  4
     Message from routine setup:
     using ibrav=0 with symmetry is DISCOURAGED, use correct ibrav instead


     G-vector sticks info
     --------------------
     sticks:   dense  smooth     PW     G-vecs:    dense   smooth      PW
     Sum         613     421    139                 9985     5577    1037

     Using Slab Decomposition



     bravais-lattice index     =            0
     lattice parameter (alat)  =       5.4492  a.u.
     unit-cell volume          =     114.4138 (a.u.)^3
     number of atoms/cell      =            1
     number of atomic types    =            1
     number of electrons       =        11.00
     number of Kohn-Sham states=           10
     kinetic-energy cutoff     =      50.0000  Ry
     charge density cutoff     =     300.0000  Ry
     scf convergence threshold =      1.0E-08
     mixing beta               =       0.7000
     number of iterations used =            8  plain     mixing
     Exchange-correlation= SLA  PZ   NOGX NOGC
                           (   1   1   0   0   0   0   0)

     celldm(1)=   5.449179  celldm(2)=   0.000000  celldm(3)=   0.000000
     celldm(4)=   0.000000  celldm(5)=   0.000000  celldm(6)=   0.000000

     crystal axes: (cart. coord. in units of alat)
               a(1) = (   0.000000   0.707107   0.707107 )  
               a(2) = (   0.707107   0.000000   0.707107 )  
               a(3) = (   0.707107   0.707107   0.000000 )  

     reciprocal axes: (cart. coord. in units 2 pi/alat)
               b(1) = ( -0.707107  0.707107  0.707107 )  
               b(2) = (  0.707107 -0.707107  0.707107 )  
               b(3) = (  0.707107  0.707107 -0.707107 )  


     PseudoPot. # 1 for Au read from file:
     ../DATA/au_lda_v1.uspp.F.UPF
     MD5 check sum: 0dd2c1ecc5af7031f95943e9b8637278
     Pseudo is Ultrasoft + core correction, Zval = 11.0
     Generated by new atomic code, or converted to UPF format
     Using radial grid of  985 points,  7 beta functions with: 
                l(1) =   0
                l(2) =   0
                l(3) =   1
                l(4) =   1
                l(5) =   2
                l(6) =   2
                l(7) =   3
     Q(r) pseudized with  6 coefficients,  rinner =    1.900   1.900   1.900
                                                       1.900   1.900   1.900
                                                       1.900

     atomic species   valence    mass     pseudopotential
        Au            11.00   196.96657     Au( 1.00)

     48 Sym. Ops., with inversion, found



   Cartesian axes

     site n.     atom                  positions (alat units)
         1           Au  tau(   1) = (   0.0000000   0.0000000   0.0000000  )

     number of k points=    56  Gaussian smearing, width (Ry)=  0.0100
                       cart. coord. in units 2pi/alat
        k(    1) = (   0.0000000   0.0000000   0.0000000), wk =   0.0015026
        k(    2) = (   0.0642824   0.0642824  -0.0642824), wk =   0.0120210
        k(    3) = (   0.1285649   0.1285649  -0.1285649), wk =   0.0120210
        k(    4) = (   0.1928473   0.1928473  -0.1928473), wk =   0.0120210
        k(    5) = (   0.2571297   0.2571297  -0.2571297), wk =   0.0120210
        k(    6) = (   0.3214122   0.3214122  -0.3214122), wk =   0.0120210
        k(    7) = (   0.1285649   0.0000000   0.0000000), wk =   0.0090158
        k(    8) = (   0.1928473   0.0642824  -0.0642824), wk =   0.0360631
        k(    9) = (   0.2571297   0.1285649  -0.1285649), wk =   0.0360631
        k(   10) = (   0.3214122   0.1928473  -0.1928473), wk =   0.0360631
        k(   11) = (   0.3856946   0.2571297  -0.2571297), wk =   0.0360631
        k(   12) = (  -0.2571297  -0.3856946   0.3856946), wk =   0.0360631
        k(   13) = (  -0.1928473  -0.3214122   0.3214122), wk =   0.0360631
        k(   14) = (  -0.1285649  -0.2571297   0.2571297), wk =   0.0360631
        k(   15) = (  -0.0642824  -0.1928473   0.1928473), wk =   0.0360631
        k(   16) = (  -0.0000000  -0.1285649   0.1285649), wk =   0.0180316
        k(   17) = (   0.2571297   0.0000000   0.0000000), wk =   0.0090158
        k(   18) = (   0.3214122   0.0642824  -0.0642824), wk =   0.0360631
        k(   19) = (   0.3856946   0.1285649  -0.1285649), wk =   0.0360631
        k(   20) = (   0.4499770   0.1928473  -0.1928473), wk =   0.0360631
        k(   21) = (  -0.1928473  -0.4499770   0.4499770), wk =   0.0360631
        k(   22) = (  -0.1285649  -0.3856946   0.3856946), wk =   0.0360631
        k(   23) = (  -0.0642824  -0.3214122   0.3214122), wk =   0.0360631
        k(   24) = (   0.0000000  -0.2571297   0.2571297), wk =   0.0180316
        k(   25) = (   0.3856946   0.0000000   0.0000000), wk =   0.0090158
        k(   26) = (   0.4499770   0.0642824  -0.0642824), wk =   0.0360631
        k(   27) = (   0.5142595   0.1285649  -0.1285649), wk =   0.0360631
        k(   28) = (  -0.1285649  -0.5142595   0.5142595), wk =   0.0360631
        k(   29) = (  -0.0642824  -0.4499770   0.4499770), wk =   0.0360631
        k(   30) = (   0.0000000  -0.3856946   0.3856946), wk =   0.0180316
        k(   31) = (   0.5142595   0.0000000   0.0000000), wk =   0.0090158
        k(   32) = (   0.5785419   0.0642824  -0.0642824), wk =   0.0360631
        k(   33) = (  -0.0642824  -0.5785419   0.5785419), wk =   0.0360631
        k(   34) = (   0.0000000  -0.5142595   0.5142595), wk =   0.0180316
        k(   35) = (   0.6428243   0.0000000   0.0000000), wk =   0.0090158
        k(   36) = (  -0.0000000  -0.6428243   0.6428243), wk =   0.0180316
        k(   37) = (   0.2571297   0.1285649   0.0000000), wk =   0.0360631
        k(   38) = (   0.3214122   0.1928473  -0.0642824), wk =   0.0721262
        k(   39) = (   0.3856946   0.2571297  -0.1285649), wk =   0.0721262
        k(   40) = (  -0.2571297  -0.3856946   0.5142595), wk =   0.0721262
        k(   41) = (   0.3856946   0.1285649   0.0000000), wk =   0.0360631
        k(   42) = (   0.4499770   0.1928473  -0.0642824), wk =   0.0721262
        k(   43) = (  -0.1928473  -0.4499770   0.5785419), wk =   0.0721262
        k(   44) = (  -0.1285649  -0.3856946   0.5142595), wk =   0.0721262
        k(   45) = (  -0.0642824  -0.3214122   0.4499770), wk =   0.0721262
        k(   46) = (   0.0000000  -0.2571297   0.3856946), wk =   0.0360631
        k(   47) = (   0.5142595   0.1285649   0.0000000), wk =   0.0360631
        k(   48) = (  -0.1285649  -0.5142595   0.6428243), wk =   0.0721262
        k(   49) = (  -0.0642824  -0.4499770   0.5785419), wk =   0.0721262
        k(   50) = (   0.0000000  -0.3856946   0.5142595), wk =   0.0360631
        k(   51) = (  -0.0642824  -0.5785419   0.7071068), wk =   0.0360631
        k(   52) = (   0.0000000  -0.5142595   0.6428243), wk =   0.0360631
        k(   53) = (  -0.1928473  -0.4499770   0.7071068), wk =   0.0360631
        k(   54) = (  -0.1285649  -0.3856946   0.6428243), wk =   0.0721262
        k(   55) = (  -0.0642824  -0.4499770   0.7071068), wk =   0.0360631
        k(   56) = (   0.0000000  -0.3856946   0.6428243), wk =   0.0360631

     Dense  grid:     9985 G-vectors     FFT dimensions: (  32,  32,  32)

     Smooth grid:     5577 G-vectors     FFT dimensions: (  25,  25,  25)

     Estimated max dynamical RAM per process >      68.95 MB

     Initial potential from superposition of free atoms

     starting charge      10.9999, renormalised to      11.0000
     Starting wfcs are    9 randomized atomic wfcs +    1 random wfcs

 Energies determined by pw2casino tool
 -------------------------------------
 Kinetic energy      0.0000000000000000       au  =     0.0000000000000000       Ry
 Local energy       -3.4623775476150982       au  =    -6.9247550952301964       Ry
 Non-Local energy    0.0000000000000000       au  =     0.0000000000000000       Ry
 Ewald energy       -35.994451630158778       au  =    -71.988903260317556       Ry
 xc contribution    -31.170958077908590       au  =    -62.341916155817181       Ry
 hartree energy      4.4869015585168190       au  =     8.9738031170336381       Ry
 Smearing (-TS)     -3.9039000254639089E-089  au  =    -7.8078000509278178E-089  Ry
 Total energy        0.0000000000000000       au  =     0.0000000000000000       Ry
 -------------------------------------
 Total energy0      -66.140885697165643       au  =    -132.28177139433129       Ry
 External energy0    0.0000000000000000       au  =     0.0000000000000000       Ry
 -------------------------------------

