#     DFTpy    
  CRYSTAL 
    
  PRIMVEC    
  4.000000000000001    1.0    1.0    
  0.0    4.000000000000001    1.0    
  1.0    0.0    15.000000000000004    
  PRIMCOORD    
  2    1    
  Al    0.5    0.0    2.0    
  Al    2.0    2.0    3.000000000000001    
  BEGIN_BLOCK_DATAGRID_3D    
  3d_datagrid_density    
  BEGIN_DATAGRID_3D#0    
  37    33    121    
  0.0    0.0    0.0    
  4.000000014920077    1.0000000037300192    1.0000000037300192    
  0.0    4.000000014920077    1.0000000037300192    
  1.0000000037300192    0.0    15.00000005595029    
  0.01937128354389649    0.02069012337046308    0.02215408609128121    0.02374427060687503    0.025389430115173767    
  0.026950637068365483    0.02827899534538158    0.029306474876685355    0.030058597574839897    0.030553352069774158    
  0.030719860436782744    0.03043608091499394    0.02964969888930102    0.028445251914081413    0.026960249773980018    
  0.025297107567671562    0.023547393214156772    0.0218095137429179    0.020122347876960517    0.018439782060162783    
  0.016754300217895323    0.01520221890157906    0.013977590854803743    0.013152641015322803    0.012630407067087356    
  0.012303655477650732    0.012158309384746857    0.012204706028459415    0.012426386346379067    0.012808486527131695    
  0.013380735178203013    0.014169233809973644    0.015113784434714964    0.016113705118975395    0.017128227414569132    
  0.018194442689069373    0.01937128354389649    0.021037811054895005    0.022338643785672536    0.023746477078858914    
  0.025258572101291014    0.02680435798215658    0.028235774516463953    0.029405479190494844    0.030254098423591967    
  0.030798087569776807    0.031030901543609615    0.030880863081966844    0.030284171835953205    0.02928332205802705    
  0.02800115094819681    0.026519470681842225    0.02486947115601156    0.023129577946741878    0.021427647115341453    
  0.019818509091411366    0.018249067964880916    0.016701770965901936    0.015299888689938848    0.01421968327104442    
  0.013520249229390092    0.013119199851943299    0.012928415635441146    0.012913628633121458    0.013065963158763459    
  0.013389493460918162    0.013907063382630784    0.014654416468709908    0.015605111791494196    0.016648190609375203    
  0.017692971944966263    0.018738801798626366    0.019839977572174712    0.021037811054895005    0.02266409311366981    
  0.023899615848589448    0.025180864199799674    0.026530685462578658    0.027898365842853278    0.029153409376348336    
  0.030158680001152464    0.030846067165078445    0.03120126389377546    0.031191842210684592    0.030767597682605344    
  0.02994763389339032    0.02885140514836628    0.027587030751246668    0.026154258783906217    0.024531368807251517    
  0.022813684997618756    0.021167706367634282    0.019658469832544722    0.018221127462994213    0.016820668552345625    
  0.01556195722728449    0.01460238395981574    0.013997573044019404    0.013692742204435327    0.013607504148979585    
  0.013683309723462137    0.0139139487823404    0.01433673186702104    0.015007500208632103    0.015941961020035242    
  0.017037040446008074    0.018148513439206614    0.019225667741126908    0.020311626176516537    0.021458941494942464    
  0.02266409311366981    0.02407056406991832    0.025210860723874774    0.02634451097406817    0.02750707749789208    
  0.02866263162292232    0.029698764695633758    0.03050248815922278    0.03101438589871228    0.03119517569794819    
  0.030987397482068472    0.030366781432778413    0.029423710244619806    0.028314390369188702    0.02710423940167455    
  0.025728018883793613    0.02415191054913469    0.022504084250497162    0.020965034691662675    0.019581691652447046    
  0.018275149215345416    0.017013196059828792    0.01590136422011867    0.015080550690551245    0.01459924428721609    
  0.014413506006008261    0.014431308124311742    0.014578466098118126    0.014863359270073796    0.01536035128861063    
  0.016152047847965766    0.017211429970503275    0.018371709684161297    0.0194990471460344    0.02059338847280721    
  0.0217180658390543    0.02289399790422046    0.02407056406991832    0.02519507419553291    0.026212379772091815    
  0.02719426268499537    0.02816731635200156    0.02907809642796034    0.02983061793042368    0.030369539435741878    
  0.03066967010367365    0.030677908809205578    0.030317852247986984    0.029586359451617632    0.02861620258908525    
  0.027562501916778403    0.02643955455094042    0.02514701342493379    0.023668106629772773    0.022151447185272368    
  0.020756760167561023    0.019504369650310594    0.01832728415622366    0.017223148101151935    0.016301226424944054    
  0.01567428979932454    0.01536970112576473    0.015339281998194062    0.015478441275699046    0.015704224269450586    
  0.016037750691298418    0.01658371973293095    0.01742753057713838    0.018499402650731966    0.019626461129786842    
  0.02072216209776747    0.021816282474030446    0.022952161050355576    0.024101824683833317    0.02519507419553291    
  0.02599022459891042    0.026853587950391212    0.027686553331905832    0.02846386847292459    0.029088489575484825    
  0.029506813345854047    0.02974383633913403    0.029814595865498505    0.029661753692725085    0.02919828417403312    
  0.02843993754217558    0.027538194250322275    0.026615400945430242    0.02562814878630602    0.024462587580236225    
  0.02313004242801009    0.02178229903804251    0.020546781974908182    0.019435882902692863    0.018414988719811558    
  0.017507724368518492    0.01681127835618644    0.01639802780633672    0.016272803701392998    0.01639142116828303    
  0.016650698917958697    0.016969353375011216    0.01737459372728423    0.017967307778647326    0.018803124518905763    
  0.01979904109370986    0.02083037782835941    0.021863495129711207    0.02292659101725896    0.02401225294052692    
  0.02505081517207617    0.02599022459891042    0.02632809100323895    0.027022044838114403    0.027705041615143203    
  0.028273017847242874    0.028609814029273088    0.028725701252178666    0.02871332364381023    0.02861489237344138    
  0.028359628041144884    0.027852770246758897    0.027137276779159024    0.026370011920295373    0.025618678156136273    
  0.024785047402085165    0.023763599062991213    0.02260073734040305    0.0214434201607532    0.020390228505905134    
  0.019456063238501707    0.018634007320243978    0.017955816139353157    0.017477942171404533    0.017221266560503094    
  0.01719791296943406    0.01739808554555762    0.017737014289958736    0.018143274363523622    0.018630724601066104    
  0.01926105836387714    0.020054691949692012    0.020945823564323018    0.021871563443690557    0.022830635834383113    
  0.023818374527155354    0.02476808281546689    0.025602295918069232    0.02632809100323895    0.02611660429722228    
  0.026638489346362267    0.027152382151268136    0.02750387488339641    0.027601961559575422    0.027521001056099777    
  0.027396048770313743    0.027256996965701632    0.026990570916688147    0.026502717294328966    0.025872252589879637    
  0.025249488973281987    0.024647293914532603    0.02394269062227891    0.02306642428463189    0.022097187889107955    
  0.021163263853884052    0.020331266165224633    0.01961593164987515    0.01902740713244543    0.018577711653764543    
  0.01825333640857645    0.01805134709755445    0.018038499318719    0.018248807281526266    0.018616772277166398    
  0.019069807978897634    0.019589576768627562    0.020208259767703882    0.020939712201288097    0.021742751926004476    
  0.022586044065020357    0.023459748802769416    0.024310869267684974    0.025043245412285167    0.025618483273066008    
  0.02611660429722228    0.025459632473681222    0.025810160059565473    0.026122094823185484    0.026243866337959932    
  0.026148328500812883    0.025975477112417423    0.025866371709049808    0.025789564138479843    0.025580250515973697    
  0.025156941941644032    0.024626398249262407    0.024124120843939285    0.02363456236289438    0.023053921857697442    
  0.02235758726604066    0.021625519030265737    0.020942329639002232    0.020345849105575957    0.01985797463818735    
  0.01948954547906272    0.019205299601043994    0.018945404426981994    0.018742313895566923    0.018722645605313115    
  0.018940517914091032    0.01932431419851266    0.01976669088734475    0.0202323850046375    0.02077635183007275    
  0.021431328009789464    0.02216252162401793    0.0229263852158945    0.023676043549677436    0.02433013692578322    
  0.02481480696684912    0.025152511153234143    0.025459632473681222    0.02456709401553566    0.024754678515419414    
  0.02483980544225055    0.024722510295315976    0.024463715503057273    0.0242496449606313    0.024188664599242436    
  0.02418394002324879    0.02404255753799151    0.02370066545686145    0.023278306000499568    0.022895432225995983    
  0.022537883401008145    0.022137968826693714    0.021684642395057303    0.02121375957361608    0.02075643271550328    
  0.02034808167651042    0.020034314365767164    0.019814176090641022    0.01961093745866041    0.019369077929637785    
  0.01917981677124705    0.019204669718069396    0.01948369712406969    0.019891172706463768    0.020278463491398672    
  0.020641135062538618    0.021080475654742442    0.021641998848560398    0.02228065614082823    0.02292077133879492    
  0.023487179041642117    0.023917656086023562    0.024197502061708197    0.024384804385187656    0.02456709401553566    
  0.02349344434037812    0.023539796976794876    0.023423461502167214    0.023117696979238843    0.022750240615401852    
  0.02251011642982359    0.022465548698058814    0.022489473735467294    0.022394729141039592    0.022142999436065697    
  0.021852500299951314    0.02162338740274931    0.021453040855590588    0.021293747804966796    0.021109961624278407    
  0.02087496391639267    0.02058511332062921    0.020300746807502122    0.0200972701967598    0.019959720522341313    
  0.019785844288483893    0.019544135731637626    0.019379338992932343    0.019469374887601653    0.019811489869562104    
  0.0202194821020676    0.02054123802599204    0.020810686812418343    0.0211457811964346    0.021585749328325396    
  0.022069590388912146    0.0225121889784558    0.022860047844649088    0.023101982957005853    0.023262385256319944    
  0.023384775648686875    0.02349344434037812    0.022091270327974838    0.022032670551137154    0.021807967725270078    
  0.021437878683915276    0.02106052268159528    0.02083541789970539    0.02080159307587488    0.02083411518048247    
  0.020782825157269365    0.020637943925187006    0.020498456307649286    0.020442682987837194    0.020478730959004564    
  0.02056469878856325    0.020631005362765496    0.020597344369493648    0.02044482585682372    0.020264042387167322    
  0.020151788702379755    0.020073744105296    0.019905483176233214    0.019639408333538767    0.019460358483210975    
  0.019546496161756074    0.019861519366030454    0.02020673253215759    0.020451671172614545    0.020640828051809897    
  0.020870932366879143    0.02114806511031703    0.021409823821489093    0.021616615798593718    0.02176844840075144    
  0.021881683472736082    0.021973198239707097    0.02205005284382938    0.022091270327974838    0.0202833488011544    
  0.020170664565953116    0.019950493371360317    0.019642103434144013    0.0193546405065004    0.019206518343158462    
  0.019214449271814014    0.019274984448161697    0.019287825192897495    0.01926280429109529    0.01927566789629523    
  0.019388878953086545    0.01962043903083757    0.019934365232885127    0.020230063319014703    0.020380817231122134    
  0.020359015768996694    0.020280310894664474    0.020252328385555435    0.020220682179097164    0.02005033947308816    
  0.019751431958659818    0.01951400231617161    0.01949664906865475    0.01966266864292005    0.019854657253245096    
  0.01998405242626704    0.020087504693368098    0.02020414763824884    0.020299100349134805    0.020337467724826034    
  0.020335354563590466    0.02032667166032845    0.020328981193032798    0.020335296664235183    0.02032710943745794    
  0.0202833488011544    0.01827350968694751    0.018149766821272884    0.017981987549916378    0.01777613803366287    
  0.017612130236506197    0.017567512053797894    0.017642166732597428    0.017759616134854727    0.01786519380966756    
  0.017983653919176886    0.018170981945086182    0.018471460601424343    0.018905001378284658    0.01943362135423639    
  0.019924941340958575    0.02022198050661718    0.02030024255296456    0.020290792010502455    0.02030309184975499    
  0.02028385838293415    0.020116073813240782    0.019810364495986093    0.019510383090925544    0.019331333572512852    
  0.01926485861966592    0.019242009239667044    0.019234653814886628    0.019250546682647498    0.019259925966414786    
  0.019207940890209423    0.01908393963894697    0.018927098293439457    0.018779899977819207    0.0186503593014217    
  0.018523473355788606    0.018394403066008667    0.01827350968694751    0.016384348191728487    0.01625492323484438    
  0.016110381810534168    0.015970233424594072    0.015901199687557998    0.015950779488189383    0.016103099876597582    
  0.016302448055820384    0.016539422862415068    0.016854752935297868    0.01727578065083099    0.017808951040536886    
  0.018452326474178667    0.019150591579302132    0.019758527731528346    0.020129774790557053    0.020255060621265038    
  0.02025934793033457    0.020246320164444925    0.020192391014179734    0.02002099031887084    0.019724641606500948    
  0.019368050998056836    0.019016347489854146    0.018709800455549302    0.018482049457483916    0.01835237460168718    
  0.01828887552416811    0.018212211527270938    0.01805900083615545    0.017828439972491287    0.017563036773064634    
  0.017291338807474976    0.017017675928843026    0.01675818625429099    0.016542039897047105    0.016384348191728487    
  0.01478916107166007    0.014640622224891093    0.014483857975869851    0.014376985229673147    0.014391009432143236    
  0.014545902693893326    0.014793855389810165    0.015100199397340816    0.015510599210413468    0.016075490577859192    
  0.016774387357672657    0.017550374151578268    0.01835834733048595    0.019134959682455807    0.01976744565462309    
  0.02015676024923073    0.020304071184391138    0.020300980727578265    0.020228926162499102    0.02009579396674983    
  0.019869788954933708    0.01953057819567497    0.01908274665582794    0.018565849562933275    0.018066737717238764    
  0.017681901954998087    0.017441911304236876    0.017284823637416517    0.01711313963800816    0.01686968692426278    
  0.016560882904125735    0.016215435067601227    0.015847064494245045    0.015482401649385693    0.015171566669481001    
  0.014946753214143762    0.01478916107166007    0.013476897766526703    0.013308822801977678    0.013154995213663052    
  0.013121266446207971    0.013275074580452796    0.013577900515334267    0.013940676474352542    0.014372164429576976    
  0.014973225488002501    0.015786821998695365    0.01673422989249468    0.017688180749274883    0.01856742159919302    
  0.019333425145615552    0.019941090686679198    0.020346621517079236    0.020543317879414033    0.020558304808740057    
  0.020422813479136322    0.020162172892294473    0.019792477496929348    0.019311335759039917    0.018716016735297648    
  0.018050682251269212    0.0174169593988074    0.01690706949167162    0.016530307415100736    0.016222309648091616    
  0.015915716868140896    0.015583323145815014    0.015225285762402037    0.01484167758578196    0.014442786168957566    
  0.014075642324916985    0.013798121192289594    0.013619692586457576    0.013476897766526703    0.01237387912498781    
  0.012222038574022969    0.012143907351771756    0.01226967734055445    0.01262524638306808    0.013092961745752349    
  0.013570407205177732    0.014124131210889066    0.01488734705709946    0.015884097273071492    0.016988516650433702    
  0.018029650817052625    0.018920992604348794    0.019661602432424694    0.020263409180207206    0.020715321667876423    
  0.020978022269930004    0.021001907678204226    0.020773721884234674    0.020338244513351963    0.01975894622957606    
  0.019075306897094205    0.018314327094919897    0.017529721711569933    0.01679720284548556    0.016161000323045505    
  0.015607902547738644    0.01510865257057847    0.01465994447550213    0.014262993511452592    0.013892685522705322    
  0.013516402354894206    0.013140213405251597    0.012822077352421649    0.01261645659665378    0.012497340454836055    
  0.01237387912498781    0.01145344307024488    0.011379853737609929    0.011442397643595337    0.011760634158793555    
  0.01230205568950776    0.012902706928125823    0.013481228610323403    0.014140921400064128    0.015018453197956428    
  0.016119163822473175    0.01730220387179912    0.018403572279140808    0.01934585923360572    0.020127402099906485    
  0.020765413106862033    0.021245691579362066    0.02149994164164812    0.021452195827407317    0.021089481880501148    
  0.02047329450624359    0.019693310002689302    0.018823118063189998    0.017918926121735138    0.017032912514897105    
  0.01620015886239218    0.015423816631466409    0.014696272405200323    0.014041560526099976    0.013501553025499491    
  0.013071876024876217    0.012696589132459477    0.012327613189628276    0.011980074408798325    0.01172233509912311    
  0.011591031508136907    0.011529725024547086    0.01145344307024488    0.010746005121798165    0.010776455986615885    
  0.01097844947402838    0.011442393674889388    0.01209939623389175    0.012794051366526069    0.013475867916643429    
  0.014248563679292937    0.015224783078865933    0.01639782372560646    0.01765438035013581    0.018864182215917215    
  0.01993050624924861    0.0208002605055489    0.02145556876149743    0.021873178477241732    0.022006183475723563    
  0.021818020332662322    0.021318469377638878    0.0205674951048666    0.019645917324458112    0.018631241226723157    
  0.017597214155485603    0.016594962141062895    0.01563729981895005    0.014722126388633924    0.013872088530253436    
  0.01314437996367518    0.012569115028492969    0.012107331551640295    0.011696413145818456    0.011309817639523207    
  0.010986759983237714    0.010792560619338878    0.010736400030532629    0.010745973456936588    0.010746005121798165    
  0.010273690049052866    0.01039425964997214    0.010702076610206862    0.01125722773214237    0.01198904161694626    
  0.012779646142583744    0.013599991776960923    0.014524353367900993    0.01562262355268414    0.016888740616093613    
  0.018250349089291393    0.019589401455855773    0.020766699269507336    0.021676722828106686    0.022275485013716078    
  0.022555642655567514    0.022520541267712347    0.022181013285984066    0.02156606351644712    0.02071929314206267    
  0.01968719272391136    0.018540693625170673    0.017370064275440463    0.01623051629876806    0.01513745856892911    
  0.014108855935181927    0.013194630534539795    0.012444933589430423    0.011844250627181172    0.011335389355410817    
  0.010883149933932341    0.010495190859702814    0.010221983353535276    0.01010743460869196    0.010130649216879221    
  0.010206625848248763    0.010273690049052866    0.010043262737713846    0.010256800812599505    0.010665945320602405    
  0.011311669046602517    0.012136533379638475    0.013058587010074231    0.014056612733374706    0.015163641856301887    
  0.01641014711564612    0.017790718289704556    0.01924444548428576    0.020642014010258915    0.021825300317760216    
  0.02268257628740719    0.02317701294722926    0.02331715552872086    0.023124584646153436    0.022631248817656716    
  0.021879005878463934    0.0208989764673607    0.019727761687605726    0.018447791616895557    0.01715217680901819    
  0.01589107539260085    0.014686583204970247    0.01357426931141621    0.012614590325376684    0.011836075441547859    
  0.011203166586361082    0.010677423091795448    0.010248785363569093    0.009929090546779502    0.009748977784743994    
  0.009719123975221617    0.009798567706723701    0.009915222526293005    0.010043262737713846    0.010048692391457772    
  0.010394993191662927    0.01094095367538555    0.011709783500174781    0.012660553249233767    0.013740262301409312    
  0.014921877183672815    0.016202532056932933    0.01758567339064836    0.01905267410340311    0.02052899686137049    
  0.021882762845842344    0.02298222287261435    0.023751964539658974    0.024163189582747054    0.024196597419855685    
  0.023847107862313227    0.023151069590434503    0.022172389769650507    0.020972320155693926    0.019623744789505668    
  0.0182213754443239    0.0168400447691909    0.015506525006045045    0.014230819589473826    0.013055981310607723    
  0.01204666424797961    0.011228024383580289    0.010587257608652426    0.010112992840263717    0.009790038144117575    
  0.009598380627081987    0.009525647712791676    0.009556856737103214    0.00966550811888259    0.009826285765613542    
  0.010048692391457772    0.010245594294826094    0.010763978161142516    0.011471400095341732    0.012380342207490142    
  0.013473188583726108    0.014709517858300082    0.016044529821184015    0.017448682669044025    0.018906918898945427    
  0.020389171121609817    0.021816536400047708    0.02308019150404047    0.024099432119022365    0.024827315502347565    
  0.025199883226242236    0.025132434460405417    0.02459120733675562    0.023636027790744037    0.022377364626557136    
  0.020924666867911362    0.01938552219094279    0.01786540776309758    0.016423599673542066    0.01505234895871115    
  0.013742752193196258    0.012539412318417395    0.011502987292549675    0.010671377512892892    0.010065446278396518    
  0.009684685072031367    0.009490928326070012    0.009420784886747127    0.00942493974659295    0.009492341714979865    
  0.009638098877747713    0.009881643611773922    0.010245594294826094    0.010603197826396354    0.011282667244666504    
  0.01213117939697541    0.013170076347326852    0.0143967781802444    0.015767333833561766    0.01721630577024879    
  0.018689314431229613    0.02016121822462144    0.021604381817274174    0.02295340084984807    0.02413708226227172    
  0.025110467166844647    0.02580997429611348    0.026110000744788666    0.025889448465167934    0.025140520720693282    
  0.023968522877110307    0.02249971648633011    0.02084224648338294    0.019121803784432012    0.017472533442969986    
  0.015958148581259764    0.014559745873478793    0.013260622451754057    0.012085738319586667    0.011078345149124251    
  0.010286608256736997    0.009747338125866221    0.009456580755219646    0.009352317541930489    0.009344817597985068    
  0.009385042440005879    0.009492375541771781    0.009713896556123083    0.010080852151632935    0.010603197826396354    
  0.011143620628967624    0.011939802916785413    0.012890129320590993    0.014027672728212991    0.01535825077351319    
  0.016836491479438706    0.01837670873576083    0.019904939047660542    0.021387128898497913    0.022788747228053213    
  0.024056526176401184    0.025147794954525238    0.026019731306932633    0.026573194533610994    0.026666091936991567    
  0.026227979439961902    0.025322189633260876    0.02406013829938326    0.02250676768709345    0.02072449961456361    
  0.0188552862256425    0.017075668001265795    0.015484478755063914    0.014083245768018221    0.012842992857905121    
  0.011753478227883479    0.010833710909898911    0.010125660269255047    0.009667117765764486    0.009442819945908489    
  0.009374123598236986    0.009382451886563595    0.009454752604022763    0.009637993490575477    0.009978212522427799    
  0.010485242505306826    0.011143620628967624    0.011903313361807744    0.012793325699648804    0.013820385509229401    
  0.01502076478539265    0.01641334579515191    0.017961431963194704    0.0195817154872916    0.021194890719607506    
  0.02273184404482884    0.024118815220330082    0.025295538479100668    0.026225773070455694    0.026859250829226494    
  0.02709854542696084    0.02686480233162106    0.026192308101816143    0.025192474458265193    0.023920353288439302    
  0.0223460689121103    0.020491118680881014    0.01852169198819951    0.016659043282856986    0.01503851909558408    
  0.013675055444296232    0.01252501860042256    0.011547159106371045    0.010732304350907836    0.010117973332139873    
  0.009741139804845497    0.00956807652127894    0.009521993962055643    0.009559131627751134    0.009701499111773062    
  0.01000362186996126    0.010487066633458763    0.011130584614498    0.011903313361807744    0.012887558408667643    
  0.013877967264571722    0.014972641304718018    0.016200931223032858    0.017597826361692093    0.019164543200599456    
  0.020855828141709647    0.022576644994092697    0.02419081640941402    0.02556837177147135    0.02662943771723327    
  0.027341532495106353    0.027665385749242426    0.027542703250575982    0.026982764892868966    0.02609905860064714    
  0.025000708888808378    0.023674558817158423    0.022040246746536707    0.02012750698139389    0.018128937505109632    
  0.016270966718252126    0.014682952494115121    0.013380404591801804    0.01231353556248576    0.011418639514023297    
  0.01068219294773374    0.010154662984449692    0.00985978579534087    0.009751163615969893    0.009765410923067269    
  0.009878626946847626    0.010134590111853949    0.010584281719464976    0.011218157441264781    0.011996212712402619    
  0.012887558408667643    0.014037243277792938    0.01512972512365143    0.016285100507312023    0.017520373520691097    
  0.018894358307778168    0.020460693484486123    0.022196972579737278    0.02397113220134261    0.025594102381914025    
  0.026907891582511917    0.027838123229994582    0.02836579697106343    0.028452282081201034    0.028062154580207752    
  0.027256874051523522    0.026177246819580627    0.024912518093410566    0.02343196954123461    0.02168642932639761    
  0.019745058063621406    0.017785347367166818    0.01598294865167472    0.01444256317784551    0.01318828998210462    
  0.01217055909221383    0.011323000277582818    0.0106522832855279    0.010211069887526228    0.010005466016538206    
  0.009989972305570746    0.010100982289983436    0.010327905608714355    0.010734235746007103    0.011345354063183086    
  0.01212158342915052    0.013026441576746577    0.014037243277792938    0.015255556253183259    0.016431754039150266    
  0.01765438150553217    0.018934028945162006    0.02033871869045893    0.02192328274433169    0.02364090088473013    
  0.025337392224876805    0.026830541392186515    0.028000006623973995    0.028808360022084447    0.02922296340169245    
  0.02916589236966986    0.028597451698769528    0.027598096561160055    0.026312963964095326    0.024834131220130826    
  0.02317337149087751    0.021344305893462874    0.01942214535785424    0.017521315900918828    0.015762181597388337    
  0.014252910369111828    0.013042199833221042    0.012080581594894087    0.011299344884236789    0.010712718172730855    
  0.010367963955901808    0.010266679517064569    0.010356745964696152    0.01057621150078026    0.010946490283554064    
  0.011522102349350132    0.012277583479263542    0.01316186294905522    0.01415739665745864    0.015255556253183259    
  0.016504120707014694    0.017744614722928268    0.01906238177899871    0.020461763085570902    0.021973348673625763    
  0.023588256748961946    0.0252147391143543    0.026711178577180365    0.027964851119332054    0.028936719450643484    
  0.029606781422931983    0.02989056932506277    0.02966801202949303    0.028905687893465204    0.02770535254316024    
  0.026220828737329442    0.024564473472332274    0.022798674190209547    0.020967596143324746    0.01910592716997013    
  0.01725878574580427    0.015530204696681614    0.014066680815793625    0.012942246514399116    0.012092305548470808    
  0.01142927930529963    0.010963417721724841    0.010740918618893648    0.010754846780259338    0.010943969833112166    
  0.011274419434814466    0.011791767408103433    0.01251219988792638    0.013373537489148298    0.014324990318330446    
  0.015363159490732272    0.016504120707014694    0.01784819842036587    0.019139853164625135    0.02055975983183828    
  0.022097459656921635    0.02372069281904506    0.02534122229145962    0.02682852728327756    0.028078118509054013    
  0.029067170988144077    0.029812533584116955    0.03027089608500559    0.030314561847437957    0.02982725684358195    
  0.028822805282149803    0.02743610535766574    0.02581623174902433    0.024076535433872955    0.022302666956073268    
  0.020535685026348283    0.01875825080304883    0.01697438707553534    0.015306350964525551    0.01393962773136707    
  0.012955715142247132    0.012268200597207844    0.01177073622554418    0.01146355219801243    0.011380381322792907    
  0.01150281599037146    0.011782766089912324    0.012223217980671157    0.012870920452839583    0.01370725691059626    
  0.0146480810363023    0.015637757130271348    0.016688988625103058    0.01784819842036587    0.01937128354389649    
  0.02069012337046308    0.02215408609128121    0.02374427060687503    0.025389430115173767    0.026950637068365483    
  0.02827899534538158    0.029306474876685355    0.030058597574839897    0.030553352069774158    0.030719860436782744    
  0.03043608091499394    0.02964969888930102    0.028445251914081413    0.026960249773980018    0.025297107567671562    
  0.023547393214156772    0.0218095137429179    0.020122347876960517    0.018439782060162783    0.016754300217895323    
  0.01520221890157906    0.013977590854803743    0.013152641015322803    0.012630407067087356    0.012303655477650732    