#     density    
  CRYSTAL 
    
  PRIMVEC    
  4.1604539101422    0.0    0.0    
  4.82784062721336e-07    6.39466880013682    0.0    
  1.73381485086629    2.263290305082836e-07    4.40252700805406    
  PRIMCOORD    
  10    1    
  Ga    4.036460308754025    3.197334548500198    2.8872785566451213    
  Ga    4.263752263830818    4.806125656275376    4.3892535919653355    
  Ga    4.263752020910131    1.588543595154761    4.3892535919653355    
  Ga    0.7399571468805431    4.450052146209993    1.227425267129551    
  Ga    0.7399569577254356    1.9446167801279706    1.227425267129551    
  As    4.177044356603113    1.264318377637588e-07    2.4593379787949257    
  As    0.6377699053516486    1.9377582018665095e-09    0.03769305598860568    
  As    1.8397007651207486    3.197334603609152    3.9592517690193345    
  As    2.4661722030905238    4.68491633953633    2.5693153228720664    
  As    2.46617197847192    1.7097527247717905    2.5693153228720664    
  BEGIN_BLOCK_DATAGRID_3D    
  3d_datagrid_from_pbcpy    
  BEGIN_DATAGRID_3D    
  17    27    19    
  0.0    0.0    0.0    
  4.1604539101422    0.0    0.0    
  4.82784062721336e-07    6.39466880013682    0.0    
  1.73381485086629    2.263290305082836e-07    4.40252700805406    
  0.05607728976823463    0.039658566999687436    0.026704579734697923    0.02823537923780139    0.0450758023248755    
  0.06439381643560604    0.05678255030027558    0.041319191968000255    0.03281771828419312    0.028331794498839342    
  0.025716035699893586    0.023948688709087583    0.02350271185717844    0.026014015394316393    0.03365886747032676    
  0.0489032654427407    0.05607728976823463    0.0579966992292256    0.0461188310812785    0.033968214826701454    
  0.03571497374368149    0.05210119924043186    0.06671908316374911    0.05638179258244721    0.04243420624368631    
  0.03500656577134706    0.031136604588176183    0.028530104674190843    0.026358372506711063    0.025195372179759135    
  0.026902522393041806    0.03357924513480209    0.047630520780591656    0.0579966992292256    0.05803104054290318    
  0.060473057066856635    0.05466985061588026    0.05704779343561841    0.0674605651439315    0.06783094863277259    
  0.055512694790095754    0.04626204667788    0.042028962774011955    0.03995721256160982    0.03748843118706017    
  0.03400526546879837    0.030719924547066402    0.02985093496203954    0.03366350897207614    0.04408806170423173    
  0.05803104054290318    0.05086297036115627    0.062306265611648766    0.06833944606814674    0.0710517235903635    
  0.06997859966631072    0.0627207632753818    0.05575371271084928    0.05364450464590098    0.05490842489936539    
  0.05524021639203516    0.05276400457878924    0.04772029344688657    0.04076987166342016    0.03535758203672663    
  0.034642539754997426    0.039959518619678225    0.05086297036115627    0.04297107393730592    0.05150316988973737    
  0.05883359460616031    0.061687468642853585    0.059951063304214784    0.05745119725388574    0.05837643328516338    
  0.06412868439089904    0.06665822218061687    0.06024804588721121    0.05576838983790698    0.05681789447770169    
  0.05301169184401631    0.04326516869021066    0.03708355819995613    0.037317950317098    0.04297107393730592    
  0.03883783666873111    0.04410619241555714    0.04920517319322733    0.052279815217684565    0.05325724178879537    
  0.055590928587932055    0.06280631687022716    0.07221318492052124    0.06268535300418068    0.044240236890991935    
  0.03884433658653833    0.04768165415980572    0.058559143866535775    0.05169961937460785    0.04070284988153828    
  0.036967366967514896    0.03883783666873111    0.03871225618788552    0.04238864422665842    0.046422390770233656    
  0.049216729199435996    0.051324517565379306    0.055782591995634866    0.066592246192929    0.07417538356584387    
  0.05390705029539934    0.03194860378780697    0.027083145615654086    0.037870273739860016    0.05770500920380834    
  0.05781189427168575    0.04462163790680125    0.038630301207706025    0.03871225618788552    0.04193820134052675    
  0.04517969049554809    0.048319837792795896    0.05026492532230014    0.051731436170894686    0.05585703736287565    
  0.0666258694184021    0.0747200688915144    0.05511310931597319    0.033260282345568035    0.02853941972315458    
  0.03996424732206354    0.06071587927366477    0.06109582292796008    0.04791599829944075    0.04193984739895434    
  0.04193820134052675    0.04866299231113649    0.05191602137044595    0.05368538421572663    0.05351514221489907    
  0.052442067150226354    0.05423162272387588    0.06177258124354887    0.07260422734173504    0.06575966264376429    
  0.04870760052328892    0.04417035334943139    0.054813907684016436    0.06744230201125857    0.061255160511498846    
  0.050697657350397496    0.04725637993665154    0.04866299231113649    0.05964389234846998    0.06298296808467492    
  0.06238392385401582    0.058157269659211044    0.0530696189632844    0.05082875263637217    0.05388487158178515    
  0.0626035191430421    0.06924932723892128    0.06682730954809603    0.06501977328820406    0.06834686768481825    
  0.06645160162648332    0.05855378348555023    0.05427359539964805    0.055479052490050675    0.05964389234846998    
  0.07335754980476489    0.07664218429263327    0.07356163536960655    0.06410865999362336    0.0537965595819658    
  0.04713002111956838    0.045855633500808686    0.04964410566889299    0.05618116221576027    0.06125565268696078    
  0.06266107957212014    0.060827631001230786    0.05729105553751135    0.05604411804714642    0.05965117840304572    
  0.06674458643609554    0.07335754980476489    0.07550783491775408    0.07904058158161445    0.08053565577215722    
  0.07020050711348833    0.05497265324204845    0.04440162109148524    0.039738832567108195    0.03991528808457119    
  0.04273231309473127    0.045848365417591616    0.047434887462739224    0.04790744488787289    0.04963529266942605    
  0.05543685172142781    0.06568211283430761    0.07358732497528599    0.07550783491775408    0.0623224036314619    
  0.06601522340669606    0.07665686773845862    0.07336453549707252    0.05616329861836358    0.04287281285048677    
  0.0362287357702941    0.03446639959203195    0.03536304476746486    0.037146038024771254    0.03869988597359084    
  0.0407750890910582    0.045682464731431664    0.05602843276543847    0.0686166314098898    0.06879053548453233    
  0.0623224036314619    0.055254743646568995    0.05890017710298747    0.07260424980463318    0.07371693056289196    
  0.05672384862536501    0.04239411389024326    0.0351224003755537    0.03276354693282411    0.033069985464551595    
  0.03435660882045097    0.035919400815669994    0.0385308981783967    0.04453228180294463    0.05640681333517367    
  0.06874138485155419    0.06433574625420559    0.055254743646568995    0.06232240571939515    0.06601522783980164    
  0.0766568559628934    0.07336453481931579    0.05616330247598057    0.04287281231204961    0.0362287361251937    
  0.03446639279793499    0.03536304313867843    0.03714603704621937    0.038699881276714004    0.040775089183164775    
  0.04568246761472158    0.056028444270401205    0.06861663840127252    0.06879052394609045    0.06232240571939515    
  0.07550783455851626    0.07904058121579917    0.08053565652161687    0.07020049148042963    0.05497264888488066    
  0.04440161347430052    0.03973882709002052    0.03991528588106713    0.042732310976679115    0.04584835871641683    
  0.04743489205615152    0.047907454993886815    0.049635295038731514    0.05543685456840369    0.06568211324783564    
  0.0735873227341599    0.07550783455851626    0.07335754689329806    0.0766421708326414    0.07356162179161375    
  0.06410864596567263    0.05379655417139599    0.0471300132164785    0.04585562843525529    0.04964409863730056    
  0.05618116100187967    0.061255642313303466    0.06266108114092463    0.060827625815429706    0.057291067708609304    
  0.05604412521787516    0.05965117805048891    0.0667445906529971    0.07335754689329806    0.05964389947203159    
  0.06298294862015884    0.062383915135780725    0.05815726080113561    0.05306960825030933    0.05082874722101318    
  0.05388486226585666    0.06260351819953815    0.0692493250852887    0.06682730881033923    0.06501977938852103    
  0.0683468659636327    0.06645160951073395    0.058553791850717594    0.054273605821709626    0.05547906185899678    
  0.05964389947203159    0.048662991702426    0.05191601883250573    0.053685377448714676    0.053515138121245705    
  0.0524420542034336    0.05423162621659309    0.06177257560775446    0.07260422983870801    0.06575965326933794    
  0.04870759242942681    0.04417035739399056    0.054813904636929936    0.06744230178645115    0.06125516513269036    
  0.050697658847961465    0.04725637189121678    0.048662991702426    0.04193820502091698    0.04517968956921192    
  0.04831983552399816    0.050264928374100536    0.051731439128320976    0.05585704670304438    0.06662586416757128    
  0.07472006614312848    0.055113115948363725    0.03326028508049768    0.02853941818407783    0.03996424477328501    
  0.060715873168742586    0.061095828705819824    0.04791599846029337    0.041939845427050704    0.04193820502091698    
  0.03871225601223232    0.04238864143181827    0.04642239154266128    0.04921673207735194    0.05132452647198306    
  0.05578258236836851    0.0665922528398977    0.07417538522510238    0.053907041152412995    0.03194860239374698    
  0.027083144419403554    0.037870272227568204    0.05770501738258054    0.05781189266930858    0.044621641062423854    
  0.038630301107691424    0.03871225601223232    0.038837828772355025    0.04410619454639178    0.049205175063370514    
  0.05227981672039457    0.0532572335677796    0.055590931193423766    0.06280632894123987    0.07221319436381866    
  0.0626853537530299    0.04424023644998723    0.03884433935994679    0.047681655215100496    0.058559140058105426    
  0.05169961594309727    0.04070284916803688    0.03696736182002224    0.038837828772355025    0.04297106871101021    
  0.05150317137646152    0.05883359124341899    0.061687469839726575    0.059951079932794596    0.05745120189352143    
  0.058376443739565076    0.06412868534316378    0.0666582298603269    0.06024804496831603    0.05576839036244536    
  0.05681789404332418    0.05301168893611927    0.043265163397166205    0.03708355156414699    0.03731794323009736    
  0.04297106871101021    0.05086296812828731    0.062306263287449024    0.06833945021288906    0.07105172164220705    
  0.06997861140686361    0.06272077484936606    0.055753722850171446    0.053644514259151524    0.054908434850810615    
  0.05524022520853462    0.05276400982604969    0.04772029096998875    0.040769866668543514    0.03535757547357692    
  0.034642533001861806    0.03995951331957392    0.05086296812828731    0.05803103971635145    0.06047305859833549    
  0.05466985472523175    0.05704779506046606    0.06746057157947306    0.06783096127185685    0.055512707653593306    
  0.046262046657924605    0.04202896921110168    0.03995721673509359    0.03748842859401041    0.03400526127232918    
  0.0307199226353754    0.02985092900321746    0.03366350674627299    0.044088048740013396    0.05803103971635145    
  0.05799670992537711    0.04611882864550028    0.033968217208776276    0.03571497297960484    0.05210119385598643    
  0.06671908419503036    0.05638179658183666    0.04243421709347576    0.03500656978095805    0.031136606189558744    
  0.028530107234519705    0.02635837106506296    0.025195368416670142    0.026902521499316552    0.033579244463688596    
  0.047630519691089855    0.05799670992537711    0.05607728976823463    0.039658566999687436    0.026704579734697923    
  0.02823537923780139    0.0450758023248755    0.06439381643560604    0.05678255030027558    0.041319191968000255    
  0.03281771828419312    0.028331794498839342    0.025716035699893586    0.023948688709087583    0.02350271185717844    
  0.026014015394316393    0.03365886747032676    0.0489032654427407    0.05607728976823463    0.05524833822840865    
  0.038838439464462055    0.030910643342976905    0.03771429046548424    0.056818504816891546    0.062318424706945284    
  0.04667926224918287    0.034170735509114585    0.027611497248793013    0.024217535834307722    0.022249509055301417    
  0.021414681344154172    0.0223718604645966    0.026867579358976535    0.03738031892000301    0.053952137720250835    
  0.05524833822840865    0.05866649394613769    0.045908782662977446    0.038490959612459234    0.04552499689377982    
  0.062018137296463036    0.062614598832357    0.04691071392790445    0.03573777761878337    0.02989453021036381    
  0.026856498094570688    0.02470752847236026    0.02341230626999848    0.02368488666529733    0.027461230161531774    
  0.03683787273585407    0.05295254604465269    0.05866649394613769    0.06219033878555309    0.06271474251569588    
  0.05976996989092241    0.0651964017732057    0.07023829434338157    0.061307945502090774    0.048287692407370186    
  0.04082330203455287    0.03728365204796907    0.03518733442930919    0.03261714128625349    0.02980352392628351    
  0.02798896323705934    0.02934912619533905    0.03581677171816927    0.04903331635441002    0.06219033878555309    
  0.05645744382138803    0.0676682285203401    0.07296567858341567    0.07373395594029651    0.06808735069259983    
  0.05854061522664425    0.05202463914409577    0.05031024698208792    0.05082757825564445    0.050033522632101556    
  0.046840210288222765    0.04148871783009523    0.03582165022158752    0.03303935803907039    0.035331422166156375    
  0.043616035605709445    0.05645744382138803    0.04824869255380705    0.05808091303072595    0.06478326316315365    
  0.06536172815395848    0.061512234626920174    0.057962101178280365    0.058734449516451605    0.06316436637483344    
  0.06341931308567385    0.05824403172416424    0.05587870623762932    0.05402247087099741    0.04653881634015901    
  0.03864939784753794    0.03622935177945973    0.03983552360868639    0.04824869255380705    0.04443117557574168    
  0.051988654201900734    0.05793394215531978    0.05987947675738741    0.05934698674536496    0.06047826580295095    
  0.06714186647769746    0.07218386017259588    0.060144215569516206    0.0465062191314339    0.046145422679865725    
  0.05520575673299804    0.05589833828294276    0.04512500717025439    0.03861750827170293    0.03890220219225736    
  0.04443117557574168    0.04499277694974353    0.05185904912162586    0.05758937068162176    0.06013621886594848    
  0.06092638263535524    0.06423629023335557    0.07350921075143917    0.074119285602865    0.05178890398167073    
  0.03557151788995242    0.03599499724061304    0.05044360452562954    0.06035653331014557    0.050591921968265674    
  0.041651878656823    0.040575919562014125    0.04499277694974353    0.048646869785289766    0.055665081096271066    
  0.061037090909062446    0.06295462433595292    0.06316402489183699    0.06585143085888634    0.07462949375696447    
  0.07529745917905196    0.05314834404808317    0.03686846566708435    0.0375145002514643    0.052520287020753766    
  0.06282915094592803    0.05320626967623073    0.044544463522846925    0.04388887217472529    0.048646869785289766    
  0.05433478439765314    0.06133454318886138    0.06548555839238286    0.06519490630507267    0.06305047711077942    
  0.06301138586262509    0.0689169915805681    0.07434036484946022    0.06361372057333388    0.050649534477748594    
  0.051114154662418664    0.06133271678023762    0.06276745323214789    0.05263558169418491    0.0470192225444894    
  0.04834590142457142    0.05433478439765314    0.061842912897114626    0.06807449433397132    0.0695092870735221    
  0.06573609297147802    0.05996076362200857    0.05634813884330517    0.057915956972102445    0.06372340508179297    
  0.06635919881464114    0.06362157490196817    0.06302623777582207    0.06264658801400644    0.05660043809504774    
  0.05037631110480746    0.04962606448491663    0.05433681652981945    0.061842912897114626    0.07088299446653692    
  0.07549216221561036    0.07294305524499797    0.06467392110039777    0.05514361096539076    0.048392554917854234    
  0.046259631401474044    0.048359475541781966    0.05216759850603492    0.05442815735630252    0.05389856355892355    
  0.05107650676166652    0.04814839485794769    0.04840972279494123    0.053346330927417016    0.06197926178452642    
  0.07088299446653692    0.07802818771111025    0.08153091102914256    0.07578300800254559    0.0632368593137411    
  0.05058423363557911    0.041667282692611704    0.037298323887338565    0.03659937462377275    0.03784245072929052    
  0.03918463193405799    0.039693516185062505    0.03998863915840024    0.04196809015302168    0.04777796680626623    
  0.05780477099400919    0.06917395099364802    0.07802818771111025    0.07795949345031077    0.08191061447905636    
  0.07688562104038837    0.06223519837635247    0.047543617911072346    0.03748108330817685    0.032026840169043794    
  0.030025137568522604    0.029976460728470752    0.030735971574585092    0.031789779332527766    0.033914955090797255    
  0.03873097160209375    0.04806835488140615    0.060960035207769915    0.07167804667215456    0.07795949345031077    
  0.07592076917501207    0.08036126391705391    0.07680374872981388    0.061945028200209966    0.046521057979606026    
  0.036088455673776255    0.030324799876993574    0.027978827794323546    0.02752211738736328    0.028062902529482778    
  0.02927465748239204    0.032013871879489834    0.037801303885936235    0.048302974203965864    0.06186969938166735    
  0.07122910392285825    0.07592076917501207    0.07795948563876987    0.08191060607389418    0.076885617263856    
  0.06223517977607724    0.04754362060004853    0.03748108538878167    0.0320268429850452    0.030025131130858976    
  0.029976457155899666    0.03073597184267961    0.03178977727205847    0.03391495497733329    0.038730972361352124    
  0.048068361953163455    0.060960032328460576    0.07167804140719072    0.07795948563876987    0.07802818205977897    
  0.0815308966051405    0.07578298852343619    0.06323684759755324    0.05058421737439013    0.041667272232796315    
  0.037298325466195784    0.03659937035441294    0.03784245184121514    0.03918462894253806    0.03969352464183798    
  0.03998864352062168    0.041968094214218155    0.047777969483823984    0.05780476950960094    0.06917395378941582    
  0.07802818205977897    0.07088298211486921    0.07549214912983537    0.07294304461258717    0.0646739108804873    
  0.05514360492183957    0.04839254611813877    0.046259624584107366    0.04835947545313356    0.05216759895473103    
  0.054428155405541315    0.053898566245352594    0.05107651259189525    0.04814840618099003    0.048409727969699244    
  0.05334633364428455    0.061979263356777434    0.07088298211486921    0.06184291361387902    0.06807448765801935    
  0.0695092716590065    0.06573608216278817    0.05996075487191288    0.0563481272319503    0.05791595232611561    
  0.06372339978747951    0.0663592005815582    0.0636215647853489    0.06302623257953273    0.06264659572169168    
  0.05660044551953485    0.05037631815319066    0.049626073731131766    0.054336821157562366    0.06184291361387902    
  0.05433477860246511    0.06133454597716781    0.06548555519591782    0.06519491061642833    0.0630504564797487    
  0.06301138816873811    0.06891698298264194    0.07434036909814877    0.06361371757187746    0.050649535603950566    
  0.051114152820670056    0.061332716257665364    0.0627674504088421    0.05263559050250684    0.04701922204186163    
  0.04834589002398963    0.05433477860246511    0.0486468736786587    0.05566508200255244    0.06103709019752075    
  0.06295462324738071    0.06316403003872778    0.06585142537653686    0.07462948598347795    0.07529745908799904    
  0.05314835162579587    0.03686846816504867    0.03751450226242454    0.052520284773037926    0.06282915005088308    
  0.05320627581937179    0.04454446269375314    0.0438888724179263    0.0486468736786587    0.044992778616423174    
  0.051859043543003656    0.057589378490698846    0.060136215062388775    0.06092639285303613    0.06423628362595585    
  0.07350921421630462    0.07411929602062818    0.05178890084251949    0.035571518492320445    0.03599499431345352    
  0.05044360936403101    0.0603565400647046    0.05059191816429256    0.041651881337758226    0.04057592395177461    
  0.044992778616423174    0.04443117701238145    0.0519886621153364    0.05793394960399441    0.059879488091986344    
  0.05934699018615972    0.060478270419225766    0.06714188323815753    0.07218386390136443    0.06014421156445387    
  0.046506221086273364    0.04614542458001301    0.05520575574480327    0.055898331937769656    0.045125000257134354    
  0.038617506094035796    0.038902198319619816    0.04443117701238145    0.048248687104577914    0.05808091321387615    
  0.06478326121014086    0.06536174404208152    0.06151225165949787    0.057962110317436394    0.05873446173903203    
  0.06316436289897806    0.0634193141497922    0.058244030951206865    0.05587870969794551    0.054022465160172305    
  0.046538807799044436    0.03864939351596407    0.03622934344362736    0.039835518700586325    0.048248687104577914    
  0.05645744309238784    0.06766822641163851    0.07296568399847994    0.07373396299272739    0.06808736082657636    
  0.05854062591796113    0.05202464707002137    0.0503102582744563    0.05082758521569741    0.050033525706722176    
  0.04684020765049482    0.04148871158871661    0.035821641696154975    0.0330393534585095    0.035331414208407255    
  0.043616030855275593    0.05645744309238784    0.06219034224253939    0.06271473973411491    0.05976997166336955    
  0.06519640254475512    0.07023830328169055    0.06130794997862996    0.04828769879368469    0.040823306549875635    
  0.03728365583929037    0.035187337317489756    0.032617138620059855    0.02980351718325563    0.027988955066654404    
  0.029349119424822764    0.03581676781703236    0.04903330934131729    0.06219034224253939    0.05866649622586992    
  0.04590877794781226    0.03849095987295676    0.04552499244319605    0.06201813485730288    0.06261460129213635    
  0.046910718892951765    0.035737788379886    0.02989453294095962    0.026856499247580583    0.024707528106886017    
  0.023412303853842777    0.02368488169641396    0.027461225223888042    0.03683787361216943    0.05295254737139571    
  0.05866649622586992    0.05524833822840865    0.038838439464462055    0.030910643342976905    0.03771429046548424    
  0.056818504816891546    0.062318424706945284    0.04667926224918287    0.034170735509114585    0.027611497248793013    
  0.024217535834307722    0.022249509055301417    0.021414681344154172    0.0223718604645966    0.026867579358976535    
  0.03738031892000301    0.053952137720250835    0.05524833822840865    0.061203924789733424    0.05292523541953507    
  0.0506993649471985    0.058896211707158204    0.062458568107699286    0.049400482269102035    0.034982189926798274    
  0.026709563719845994    0.022336274224241413    0.020129404005208032    0.01904629575462742    0.01921401835777296    
  0.021391043270043934    0.02737949728890055    0.03922704682842296    0.05594882817492963    0.061203924789733424    
  0.0635962892747213    0.05905669942221043    0.05746304330321102    0.06376110441592787    0.06323981833477367    
  0.04917215010321817    0.03585326495328265    0.028284451116134403    0.02432173875733584    0.022189277085307192    
  0.02088298486414987    0.02063532421918676    0.022285390260020143    0.027593898087985153    0.038480476982746384    
  0.05475339778131515    0.0635962892747213    0.0646865990229475    0.0701162677941183    0.0712288273774755    
  0.0711207490565898    0.0626334195645074    0.04894695263761376    0.0388384249156093    0.03345610258101445    
  0.030789080084803473    0.028873902858867775    0.02687116713817774    0.025220004436627794    0.02518411158791624    
  0.028489760489312167    0.036823761891003365    0.05072800439317812    0.0646865990229475    0.05887036462479786    
  0.06968065546599242    0.07355887152953464    0.06955615546954529    0.059848424900420895    0.05029404445285624    
  0.044784530808910504    0.0430695467002718    0.04269568849240502    0.04124360374199817    0.037886892080079664    
  0.03355411587700786    0.03040782190611798    0.030581715582908595    0.03551560797768345    0.04563393181377938    
  0.05887036462479786    0.053183391303021785    0.06331137787924665    0.06809496903460092    0.06578851780584012    
  0.05961933875879491    0.05474149195539288    0.05413142695589251    0.056538759214904755    0.05729294505726298    
  0.05493259870837557    0.05126395065841268    0.04494559922889193    0.03778101714708099    0.034117065713181724    
  0.03571839642113097    0.04262608391659893    0.053183391303021785    0.052624685701976995    0.06255787698691054    
  0.06827281205566876    0.06773193727107663    0.06411754551808706    0.06222016774930297    0.06530219013997157    
  0.0685911953631354    0.06356322087482402    0.057184737730081994    0.05691494087539475    0.054728228197831554    
  0.04583603642910178    0.038578415860449515    0.03777124021694647    0.042986523696835824    0.052624685701976995    
  0.056444251158575424    0.06676400357420662    0.07264643026242812    0.07334800290594105    0.07115699002131946    
  0.07010496307860833    0.0742841874297621    0.07442944778894195    0.061704682106224276    0.05264673216248473    
  0.05523766278473467    0.05908186628052476    0.051800582601572824    0.04267929874376998    0.04096428910808804    
  0.04613690708943172    0.056444251158575424    0.062006509106549146    0.07128492000247559    0.07525914332033778    
  0.07688470341917664    0.07586191353609748    0.07401697442777311    0.0769182197037809    0.07631856564812038    
  0.06327383002205861    0.054114244447468506    0.05678328913786447    0.060759993329010144    0.05366377373344659    
  0.04498327472926526    0.04407694826990312    0.05047528242450454    0.062006509106549146    0.06696636185984116    
  0.07491267177346342    0.07654954078665221    0.07710941769088113    0.07506330209441926    0.07097450546460056    
  0.07103005305067928    0.07264680993467931    0.06727768416911711    0.061035508370573935    0.06098122310668995    
  0.05914485060273171    0.050931325829449474    0.04493577076374853    0.04621918863858317    0.0544924403773688    
  0.06696636185984116    0.07042050504729594    0.07876180075284503    0.07908053439716171    0.07562521329210622    
  0.06895222011036756    0.06177384192193747    0.05877021885351042    0.059992390328621345    0.06080996888454899    
  0.0591602482890954    0.056248003748006876    0.050906460651759806    0.04509570522656817    0.043291612335919806    
  0.047488505286882976    0.05751921726723369    0.07042050504729594    0.07196039432201874    0.07920899032066989    
  0.07777313816719957    0.06984883699986803    0.059322258743492125    0.050292294696387185    0.045466757518991915    
  0.04453612270776419    0.04515669434388624    0.044948122959971686    0.043000844380292884    0.04028429377146364    
  0.03903877457647649    0.04144518490708198    0.04860532652359928    0.05987274163410077    0.07196039432201874    
  0.07226778964445099    0.07621932535582802    0.07170333270138411    0.06127646868259215    0.04963408845944537    
  0.040484979604017465    0.035089463929110214    0.03289557938503263    0.032410673370825975    0.0322684781739065    
  0.031980036150316735    0.03226161132270439    0.03459463558077435    0.040359184758803464    0.0499567310680481    
  0.06189580850728044    0.07226778964445099    0.07208545870719378    0.07339025340491771    0.06626002207500269    
  0.05467385946402087    0.04306922745793223    0.03432270892933976    0.028977930116090192    0.026351860893527285    
  0.02541150477698103    0.025336898701978073    0.02590984570390281    0.027777639072452422    0.032137323043148695    
  0.04001572236983907    0.051191602790248675    0.06329299030871093    0.07208545870719378    0.07188381453484187    
  0.07235940142643224    0.0643110593887202    0.05231763079312454    0.040829372725616826    0.032267073508069115    
  0.02700896804267182    0.02429998380940934    0.023256436168022036    0.023188909396223846    0.024044315127585866    
  0.02639690481040568    0.03137783260773834    0.03996810686938438    0.051687650470191436    0.0637228603580198    
  0.07188381453484187    0.07208545507812981    0.0733902498112618    0.06626000871033241    0.05467385703114595    
  0.0430692298256503    0.034322709929271965    0.02897793304072587    0.026351856396441442    0.02541150531083784    
  0.02533690102506119    0.025909841444190576    0.027777637800716567    0.03213732568228162    0.04001572354720222    
  0.0511916122607093    0.06329297876173834    0.07208545507812981    0.07226777975070424    0.07621931688385415    
  0.07170333140662749    0.061276458433382884    0.04963408635706959    0.0404849746338528    0.03508946214385211    
  0.03289557601294919    0.03241067337746122    0.032268480479028076    0.031980046517744894    0.032261618420125975    
  0.0345946418632573    0.04035918326206052    0.04995673177194559    0.061895805893874604    0.07226777975070424    
  0.07196038541924166    0.0792089556941952    0.07777313093331116    0.06984882486652554    0.05932225848769998    
  0.050292288575614956    0.04546675720686145    0.0445361262277623    0.04515670208070488    0.04494812049039825    
  0.04300085276534451    0.040284294045212166    0.039038781519149184    0.04144518850374136    0.048605324235551764    