#     DFTpy    
  CRYSTAL 
    
  PRIMVEC    
  0.0    2.039    2.039    
  2.039    0.0    2.039    
  2.039    2.039    0.0    
  PRIMCOORD    
  1    1    
  Au    0.0    0.0    0.0    
  BEGIN_BLOCK_DATAGRID_3D    
  3d_datagrid_density    
  BEGIN_DATAGRID_3D#0    
  33    33    33    
  0.0    0.0    0.0    
  0.0    2.0389999986931695    2.0389999986931695    
  2.0389999986931695    0.0    2.0389999986931695    
  2.0389999986931695    2.0389999986931695    0.0    
  4.922695208202812    4.7804651457789475    4.41814149047777    3.9750041201395803    3.5622321790941536    
  3.197185746303422    2.82481228000648    2.394635219562673    1.9137373028268614    1.4398348102478093    
  1.0349663098207806    0.7320825111172482    0.5261036714299157    0.39186671396153216    0.3086033998711274    
  0.2633946061208017    0.24904927120703205    0.2633946061208017    0.3086033998711274    0.39186671396153216    
  0.5261036714299157    0.7320825111172482    1.0349663098207806    1.4398348102478093    1.9137373028268614    
  2.394635219562673    2.82481228000648    3.197185746303422    3.5622321790941536    3.9750041201395803    
  4.41814149047777    4.7804651457789475    4.922695208202812    4.7804651457789475    4.529243307554986    
  4.132598633733704    3.7180280926468776    3.346502582407687    2.990877356833596    2.593227961969332    
  2.133443915550291    1.650613593557363    1.2097903213803358    0.8593838956286242    0.611581551431414    
  0.4471799184841755    0.341931896275146    0.2797738758008893    0.250919611517736    0.2509196115177357    
  0.27977387580088964    0.341931896275146    0.4471799184841755    0.611581551431414    0.8593838956286242    
  1.2097903213803356    1.650613593557363    2.133443915550292    2.5932279619693333    2.990877356833596    
  3.34650258240769    3.7180280926468776    4.132598633733704    4.529243307554998    4.7804651457789475    
  4.7804651457789475    4.41814149047777    4.132598633733699    3.7761990071058498    3.4277556289621347    
  3.0923692164629912    2.725588172532301    2.2957952366561982    1.823117352904075    1.3665661848248076    
  0.9826038537971356    0.6981643287724288    0.504756456918258    0.37806864021460995    0.2992211476142561    
  0.2562722794131624    0.24262696737691417    0.25627227941316233    0.29922114761425633    0.3780686402146098    
  0.5047564569182581    0.6981643287724286    0.9826038537971357    1.3665661848248072    1.823117352904075    
  2.2957952366561987    2.725588172532302    3.09236921646299    3.427755628962138    3.7761990071058498    
  4.132598633733704    4.41814149047777    4.529243307554998    4.41814149047777    3.9750041201395803    
  3.7180280926468776    3.4277556289621347    3.126822097003319    2.791678614431139    2.3944810705102992    
  1.9441340345781983    1.4898310077666246    1.0891000634245944    0.7783099672674311    0.5602960544927094    
  0.4144539121147489    0.3202990390568835    0.26432476218881407    0.23823425486293037    0.23823425486293057    
  0.26432476218881396    0.3202990390568837    0.41445391211474886    0.5602960544927094    0.778309967267431    
  1.0891000634245949    1.4898310077666241    1.9441340345781986    2.3944810705102992    2.791678614431138    
  3.1268220970033176    3.427755628962138    3.7180280926468776    3.9750041201395803    4.132598633733704    
  4.132598633733704    3.9750041201395803    3.5622321790941567    3.346502582407687    3.0923692164629912    
  2.7916786144311376    2.427490189880878    2.0062008348292175    1.5682217034363086    1.1672513897782528    
  0.8435283927709936    0.6086519978882287    0.4478992749757129    0.3410655684295354    0.2739043675447519    
  0.2370001908107752    0.22526888700599507    0.23700019081077534    0.2739043675447518    0.34106556842953545    
  0.4478992749757128    0.6086519978882288    0.8435283927709937    1.1672513897782528    1.5682217034363084    
  2.0062008348292166    2.4274901898808774    2.791678614431138    3.092369216462993    3.34650258240769    
  3.5622321790941536    3.7180280926468776    3.776199007105844    3.7180280926468776    3.5622321790941567    
  3.197185746303422    2.990877356833594    2.725588172532301    2.3944810705102992    2.0062008348292175    
  1.5950694761929602    1.2085320042448557    0.8861661472133797    0.6445783319445039    0.475014712143539    
  0.3593388810125828    0.28357233389049946    0.23795517376279654    0.2165605638967861    0.21656056389678596    
  0.23795517376279662    0.2835723338904993    0.359338881012583    0.47501471214353896    0.6445783319445039    
  0.8861661472133797    1.208532004244856    1.5950694761929602    2.0062008348292175    2.3944810705102997    
  2.725588172532301    2.990877356833596    3.197185746303422    3.34650258240769    3.427755628962138    
  3.427755628962138    3.346502582407687    3.197185746303422    2.8248122800064785    2.593227961969333    
  2.295795236656199    1.9441340345781986    1.5682217034363084    1.208532004244856    0.9010008706606581    
  0.66377664556931    0.4927212575114372    0.37299085658702275    0.2918273083327523    0.23997500896910967    
  0.21115024365573568    0.20194639893895233    0.21115024365573554    0.23997500896910967    0.29182730833275217    
  0.3729908565870229    0.4927212575114369    0.6637766455693104    0.901000870660658    1.2085320042448557    
  1.5682217034363084    1.9441340345781983    2.2957952366561987    2.5932279619693333    2.824812280006479    
  2.990877356833596    3.092369216462993    3.1268220970033176    3.0923692164629912    2.990877356833596    
  2.8248122800064785    2.394635219562673    2.1334439155502904    1.823117352904075    1.4898310077666241    
  1.1672513897782528    0.8861661472133797    0.6637766455693106    0.4988745110669912    0.38027614469477805    
  0.297385808875801    0.24199506511226    0.20812656723908435    0.19210427177332437    0.1921042717733243    
  0.20812656723908426    0.24199506511226002    0.29738580887580096    0.3802761446947782    0.4988745110669912    
  0.6637766455693104    0.8861661472133797    1.1672513897782526    1.489831007766624    1.823117352904075    
  2.133443915550292    2.3946352195626734    2.593227961969332    2.725588172532303    2.7916786144311376    
  2.7916786144311376    2.725588172532301    2.593227961969332    2.394635219562673    1.9137373028268607    
  1.650613593557363    1.3665661848248074    1.0891000634245944    0.8435283927709936    0.6445783319445038    
  0.4927212575114372    0.38027614469477794    0.2993478511573353    0.24323076572076793    0.20666417918561558    
  0.18613128482386412    0.17949934070555035    0.186131284823864    0.20666417918561558    0.24323076572076813    
  0.2993478511573353    0.3802761446947782    0.49272125751143714    0.644578331944504    0.8435283927709936    
  1.0891000634245944    1.3665661848248072    1.6506135935573625    1.9137373028268614    2.133443915550291    
  2.2957952366561987    2.3944810705102992    2.427490189880878    2.3944810705102992    2.2957952366561987    
  2.1334439155502913    1.9137373028268607    1.4398348102478093    1.2097903213803356    0.9826038537971356    
  0.7783099672674307    0.6086519978882288    0.47501471214353896    0.37299085658702297    0.29738580887580085    
  0.243230765720768    0.20623024793355238    0.1833201267239963    0.1723537864830622    0.17235378648306207    
  0.18332012672399625    0.20623024793355235    0.24323076572076813    0.2973858088758009    0.3729908565870229    
  0.47501471214353896    0.6086519978882289    0.7783099672674308    0.9826038537971359    1.2097903213803356    
  1.4398348102478093    1.650613593557363    1.823117352904074    1.9441340345781983    2.006200834829217    
  2.006200834829217    1.944134034578199    1.823117352904075    1.6506135935573625    1.4398348102478093    
  1.0349663098207806    0.8593838956286239    0.6981643287724288    0.5602960544927094    0.447899274975713    
  0.3593388810125829    0.29182730833275233    0.24199506511225974    0.20666417918561578    0.18332012672399622    
  0.17006087009630338    0.1657601384621931    0.17006087009630344    0.18332012672399625    0.20666417918561555    
  0.24199506511226002    0.2918273083327521    0.359338881012583    0.44789927497571275    0.5602960544927094    
  0.6981643287724288    0.8593838956286242    1.0349663098207806    1.209790321380336    1.3665661848248076    
  1.4898310077666241    1.5682217034363082    1.5950694761929602    1.5682217034363084    1.4898310077666241    
  1.3665661848248072    1.2097903213803358    1.0349663098207806    0.7320825111172482    0.6115815514314138    
  0.504756456918258    0.41445391211474886    0.34106556842953584    0.28357233389049946    0.23997500896910962    
  0.20812656723908424    0.1861312848238641    0.17235378648306207    0.16576013846219292    0.165760138462193    
  0.17235378648306204    0.186131284823864    0.20812656723908415    0.23997500896910962    0.2835723338904993    
  0.3410655684295355    0.41445391211474875    0.5047564569182579    0.611581551431414    0.7320825111172482    
  0.8593838956286242    0.9826038537971359    1.0891000634245949    1.1672513897782526    1.2085320042448557    
  1.2085320042448557    1.167251389778253    1.0891000634245946    0.9826038537971357    0.8593838956286242    
  0.7320825111172482    0.5261036714299157    0.44717991848417515    0.3780686402146095    0.3202990390568833    
  0.27390436754475206    0.23795517376279648    0.21115024365573568    0.19210427177332406    0.17949934070555013    
  0.172353786483062    0.17006087009630336    0.17235378648306207    0.1794993407055503    0.19210427177332423    
  0.21115024365573554    0.23795517376279662    0.2739043675447518    0.32029903905688356    0.3780686402146097    
  0.4471799184841756    0.5261036714299159    0.611581551431414    0.6981643287724288    0.7783099672674308    
  0.8435283927709936    0.8861661472133797    0.9010008706606581    0.8861661472133797    0.8435283927709938    
  0.7783099672674307    0.6981643287724283    0.6115815514314136    0.5261036714299157    0.39186671396153205    
  0.3419318962751462    0.2992211476142558    0.2643247621888142    0.23700019081077534    0.21656056389678624    
  0.2019463989389524    0.19210427177332406    0.186131284823864    0.18332012672399625    0.18332012672399628    
  0.18613128482386407    0.19210427177332426    0.20194639893895233    0.21656056389678602    0.23700019081077534    
  0.26432476218881396    0.2992211476142562    0.3419318962751459    0.39186671396153205    0.4471799184841757    
  0.5047564569182579    0.5602960544927094    0.6086519978882288    0.6445783319445039    0.6637766455693102    
  0.6637766455693103    0.644578331944504    0.608651997888229    0.5602960544927094    0.5047564569182575    
  0.4471799184841757    0.39186671396153205    0.30860339987112767    0.27977387580088975    0.2562722794131628    
  0.23823425486293043    0.22526888700599526    0.2165605638967862    0.2111502436557356    0.2081265672390843    
  0.2066641791856156    0.20623024793355246    0.20666417918561578    0.20812656723908438    0.2111502436557356    
  0.2165605638967861    0.22526888700599504    0.23823425486293057    0.2562722794131624    0.2797738758008895    
  0.30860339987112734    0.341931896275146    0.3780686402146098    0.4144539121147489    0.447899274975713    
  0.47501471214353913    0.49272125751143714    0.4988745110669914    0.492721257511437    0.47501471214353913    
  0.447899274975713    0.41445391211474886    0.3780686402146101    0.3419318962751464    0.30860339987112767    
  0.26339460612080157    0.25091961151773573    0.24262696737691408    0.23823425486293023    0.2370001908107754    
  0.2379551737627967    0.23997500896910967    0.24199506511225993    0.24323076572076793    0.24323076572076793    
  0.24199506511226    0.2399750089691096    0.23795517376279657    0.2370001908107752    0.2382342548629303    
  0.24262696737691408    0.25091961151773573    0.2633946061208015    0.2797738758008893    0.2992211476142561    
  0.3202990390568836    0.34106556842953545    0.359338881012583    0.3729908565870227    0.38027614469477805    
  0.3802761446947782    0.37299085658702297    0.359338881012583    0.3410655684295355    0.32029903905688334    
  0.2992211476142562    0.27977387580088936    0.26339460612080157    0.24904927120703224    0.25091961151773584    
  0.25627227941316233    0.26432476218881384    0.2739043675447519    0.2835723338904993    0.2918273083327523    
  0.2973858088758008    0.29934785115733525    0.297385808875801    0.29182730833275233    0.28357233389049946    
  0.27390436754475184    0.26432476218881396    0.2562722794131622    0.25091961151773584    0.24904927120703205    
  0.25091961151773584    0.2562722794131622    0.26432476218881396    0.27390436754475184    0.28357233389049946    
  0.29182730833275233    0.297385808875801    0.29934785115733525    0.2973858088758008    0.2918273083327523    
  0.2835723338904993    0.2739043675447519    0.26432476218881384    0.25627227941316233    0.25091961151773584    
  0.24904927120703224    0.26339460612080157    0.27977387580088936    0.2992211476142562    0.32029903905688334    
  0.3410655684295355    0.359338881012583    0.37299085658702297    0.3802761446947782    0.38027614469477805    
  0.3729908565870227    0.359338881012583    0.34106556842953545    0.3202990390568836    0.2992211476142561    
  0.2797738758008893    0.2633946061208015    0.25091961151773573    0.24262696737691408    0.2382342548629303    
  0.2370001908107752    0.23795517376279657    0.2399750089691096    0.24199506511226    0.24323076572076793    
  0.24323076572076793    0.24199506511225993    0.23997500896910967    0.2379551737627967    0.2370001908107754    
  0.23823425486293023    0.24262696737691408    0.25091961151773573    0.26339460612080157    0.30860339987112767    
  0.3419318962751464    0.3780686402146101    0.41445391211474886    0.447899274975713    0.47501471214353913    
  0.492721257511437    0.4988745110669914    0.49272125751143714    0.47501471214353913    0.447899274975713    
  0.4144539121147489    0.3780686402146098    0.341931896275146    0.30860339987112734    0.2797738758008895    
  0.2562722794131624    0.23823425486293057    0.22526888700599504    0.2165605638967861    0.2111502436557356    
  0.20812656723908438    0.20666417918561578    0.20623024793355246    0.2066641791856156    0.2081265672390843    
  0.2111502436557356    0.2165605638967862    0.22526888700599526    0.23823425486293043    0.2562722794131628    
  0.27977387580088975    0.30860339987112767    0.39186671396153205    0.4471799184841757    0.5047564569182575    
  0.5602960544927094    0.608651997888229    0.644578331944504    0.6637766455693103    0.6637766455693102    
  0.6445783319445039    0.6086519978882288    0.5602960544927094    0.5047564569182579    0.4471799184841757    
  0.39186671396153205    0.3419318962751459    0.2992211476142562    0.26432476218881396    0.23700019081077534    
  0.21656056389678602    0.20194639893895233    0.19210427177332426    0.18613128482386407    0.18332012672399628    
  0.18332012672399625    0.186131284823864    0.19210427177332406    0.2019463989389524    0.21656056389678624    
  0.23700019081077534    0.2643247621888142    0.2992211476142558    0.3419318962751462    0.39186671396153205    
  0.5261036714299157    0.6115815514314136    0.6981643287724283    0.7783099672674307    0.8435283927709938    
  0.8861661472133797    0.9010008706606581    0.8861661472133797    0.8435283927709936    0.7783099672674308    
  0.6981643287724288    0.611581551431414    0.5261036714299159    0.4471799184841756    0.3780686402146097    
  0.32029903905688356    0.2739043675447518    0.23795517376279662    0.21115024365573554    0.19210427177332423    
  0.1794993407055503    0.17235378648306207    0.17006087009630336    0.172353786483062    0.17949934070555013    
  0.19210427177332406    0.21115024365573568    0.23795517376279648    0.27390436754475206    0.3202990390568833    
  0.3780686402146095    0.44717991848417515    0.5261036714299157    0.7320825111172482    0.8593838956286242    
  0.9826038537971357    1.0891000634245946    1.167251389778253    1.2085320042448557    1.2085320042448557    
  1.1672513897782526    1.0891000634245949    0.9826038537971359    0.8593838956286242    0.7320825111172482    
  0.611581551431414    0.5047564569182579    0.41445391211474875    0.3410655684295355    0.2835723338904993    
  0.23997500896910962    0.20812656723908415    0.186131284823864    0.17235378648306204    0.165760138462193    
  0.16576013846219292    0.17235378648306207    0.1861312848238641    0.20812656723908424    0.23997500896910962    
  0.28357233389049946    0.34106556842953584    0.41445391211474886    0.504756456918258    0.6115815514314138    
  0.7320825111172482    1.0349663098207806    1.2097903213803358    1.3665661848248072    1.4898310077666241    
  1.5682217034363084    1.5950694761929602    1.5682217034363082    1.4898310077666241    1.3665661848248076    
  1.209790321380336    1.0349663098207806    0.8593838956286242    0.6981643287724288    0.5602960544927094    
  0.44789927497571275    0.359338881012583    0.2918273083327521    0.24199506511226002    0.20666417918561555    
  0.18332012672399625    0.17006087009630344    0.1657601384621931    0.17006087009630338    0.18332012672399622    
  0.20666417918561578    0.24199506511225974    0.29182730833275233    0.3593388810125829    0.447899274975713    
  0.5602960544927094    0.6981643287724288    0.8593838956286239    1.0349663098207806    1.4398348102478093    
  1.6506135935573625    1.823117352904075    1.944134034578199    2.006200834829217    2.006200834829217    
  1.9441340345781983    1.823117352904074    1.650613593557363    1.4398348102478093    1.2097903213803356    
  0.9826038537971359    0.7783099672674308    0.6086519978882289    0.47501471214353896    0.3729908565870229    
  0.2973858088758009    0.24323076572076813    0.20623024793355235    0.18332012672399625    0.17235378648306207    
  0.1723537864830622    0.1833201267239963    0.20623024793355238    0.243230765720768    0.29738580887580085    
  0.37299085658702297    0.47501471214353896    0.6086519978882288    0.7783099672674307    0.9826038537971356    
  1.2097903213803356    1.4398348102478093    1.9137373028268607    2.1334439155502913    2.2957952366561987    
  2.3944810705102992    2.427490189880878    2.3944810705102992    2.2957952366561987    2.133443915550291    
  1.9137373028268614    1.6506135935573625    1.3665661848248072    1.0891000634245944    0.8435283927709936    
  0.644578331944504    0.49272125751143714    0.3802761446947782    0.2993478511573353    0.24323076572076813    
  0.20666417918561558    0.186131284823864    0.17949934070555035    0.18613128482386412    0.20666417918561558    
  0.24323076572076793    0.2993478511573353    0.38027614469477794    0.4927212575114372    0.6445783319445038    
  0.8435283927709936    1.0891000634245944    1.3665661848248074    1.650613593557363    1.9137373028268607    
  2.394635219562673    2.593227961969332    2.725588172532301    2.7916786144311376    2.7916786144311376    
  2.725588172532303    2.593227961969332    2.3946352195626734    2.133443915550292    1.823117352904075    
  1.489831007766624    1.1672513897782526    0.8861661472133797    0.6637766455693104    0.4988745110669912    
  0.3802761446947782    0.29738580887580096    0.24199506511226002    0.20812656723908426    0.1921042717733243    
  0.19210427177332437    0.20812656723908435    0.24199506511226    0.297385808875801    0.38027614469477805    
  0.4988745110669912    0.6637766455693106    0.8861661472133797    1.1672513897782528    1.4898310077666241    
  1.823117352904075    2.1334439155502904    2.394635219562673    2.8248122800064785    2.990877356833596    
  3.0923692164629912    3.1268220970033176    3.092369216462993    2.990877356833596    2.824812280006479    
  2.5932279619693333    2.2957952366561987    1.9441340345781983    1.5682217034363084    1.2085320042448557    
  0.901000870660658    0.6637766455693104    0.4927212575114369    0.3729908565870229    0.29182730833275217    
  0.23997500896910967    0.21115024365573554    0.20194639893895233    0.21115024365573568    0.23997500896910967    
  0.2918273083327523    0.37299085658702275    0.4927212575114372    0.66377664556931    0.9010008706606581    
  1.208532004244856    1.5682217034363084    1.9441340345781986    2.295795236656199    2.593227961969333    
  2.8248122800064785    3.197185746303422    3.346502582407687    3.427755628962138    3.427755628962138    
  3.34650258240769    3.197185746303422    2.990877356833596    2.725588172532301    2.3944810705102997    
  2.0062008348292175    1.5950694761929602    1.208532004244856    0.8861661472133797    0.6445783319445039    
  0.47501471214353896    0.359338881012583    0.2835723338904993    0.23795517376279662    0.21656056389678596    
  0.2165605638967861    0.23795517376279654    0.28357233389049946    0.3593388810125828    0.475014712143539    
  0.6445783319445039    0.8861661472133797    1.2085320042448557    1.5950694761929602    2.0062008348292175    
  2.3944810705102992    2.725588172532301    2.990877356833594    3.197185746303422    3.5622321790941567    
  3.7180280926468776    3.776199007105844    3.7180280926468776    3.5622321790941536    3.34650258240769    
  3.092369216462993    2.791678614431138    2.4274901898808774    2.0062008348292166    1.5682217034363084    
  1.1672513897782528    0.8435283927709937    0.6086519978882288    0.4478992749757128    0.34106556842953545    
  0.2739043675447518    0.23700019081077534    0.22526888700599507    0.2370001908107752    0.2739043675447519    
  0.3410655684295354    0.4478992749757129    0.6086519978882287    0.8435283927709936    1.1672513897782528    
  1.5682217034363086    2.0062008348292175    2.427490189880878    2.7916786144311376    3.0923692164629912    
  3.346502582407687    3.5622321790941567    3.9750041201395803    4.132598633733704    4.132598633733704    
  3.9750041201395803    3.7180280926468776    3.427755628962138    3.1268220970033176    2.791678614431138    
  2.3944810705102992    1.9441340345781986    1.4898310077666241    1.0891000634245949    0.778309967267431    
  0.5602960544927094    0.41445391211474886    0.3202990390568837    0.26432476218881396    0.23823425486293057    
  0.23823425486293037    0.26432476218881407    0.3202990390568835    0.4144539121147489    0.5602960544927094    
  0.7783099672674311    1.0891000634245944    1.4898310077666246    1.9441340345781983    2.3944810705102992    
  2.791678614431139    3.126822097003319    3.4277556289621347    3.7180280926468776    3.9750041201395803    
  4.41814149047777    4.529243307554998    4.41814149047777    4.132598633733704    3.7761990071058498    
  3.427755628962138    3.09236921646299    2.725588172532302    2.2957952366561987    1.823117352904075    
  1.3665661848248072    0.9826038537971357    0.6981643287724286    0.5047564569182581    0.3780686402146098    
  0.29922114761425633    0.25627227941316233    0.24262696737691417    0.2562722794131624    0.2992211476142561    
  0.37806864021460995    0.504756456918258    0.6981643287724288    0.9826038537971356    1.3665661848248076    
  1.823117352904075    2.2957952366561982    2.725588172532301    3.0923692164629912    3.4277556289621347    
  3.7761990071058498    4.132598633733699    4.41814149047777    4.7804651457789475    4.7804651457789475    
  4.529243307554998    4.132598633733704    3.7180280926468776    3.34650258240769    2.990877356833596    
  2.5932279619693333    2.133443915550292    1.650613593557363    1.2097903213803356    0.8593838956286242    
  0.611581551431414    0.4471799184841755    0.341931896275146    0.27977387580088964    0.2509196115177357    
  0.250919611517736    0.2797738758008893    0.341931896275146    0.4471799184841755    0.611581551431414    
  0.8593838956286242    1.2097903213803358    1.650613593557363    2.133443915550291    2.593227961969332    
  2.990877356833596    3.346502582407687    3.7180280926468776    4.132598633733704    4.529243307554986    
  4.7804651457789475    4.922695208202812    4.7804651457789475    4.41814149047777    3.9750041201395803    
  3.5622321790941536    3.197185746303422    2.82481228000648    2.394635219562673    1.9137373028268614    
  1.4398348102478093    1.0349663098207806    0.7320825111172482    0.5261036714299157    0.39186671396153216    
  0.3086033998711274    0.2633946061208017    0.24904927120703205    0.2633946061208017    0.3086033998711274    
  0.39186671396153216    0.5261036714299157    0.7320825111172482    1.0349663098207806    1.4398348102478093    
  1.9137373028268614    2.394635219562673    2.82481228000648    3.197185746303422    3.5622321790941536    
  3.9750041201395803    4.41814149047777    4.7804651457789475    4.922695208202812    4.7804651457789475    
  4.529243307554986    4.132598633733704    3.7180280926468776    3.346502582407687    2.990877356833596    
  2.5932279619693333    2.1334439155502913    1.650613593557363    1.209790321380336    0.8593838956286239    
  0.611581551431414    0.4471799184841755    0.34193189627514603    0.2797738758008894    0.250919611517736    
  0.2509196115177357    0.2797738758008896    0.341931896275146    0.4471799184841756    0.6115815514314138    
  0.8593838956286242    1.209790321380336    1.650613593557363    2.1334439155502922    2.593227961969332    
  2.990877356833596    3.346502582407687    3.7180280926468776    4.132598633733704    4.529243307554998    
  4.7804651457789475    4.7804651457789475    4.529243307554986    4.220578264217266    3.8381303702576486    
  3.470690443487158    3.1268582109579666    2.7586851840805062    2.3286966618759752    1.8530931550869574    
  1.3906792754281256    0.9997853385419255    0.7093107298005505    0.5118208650508723    0.3826707082253184    
  0.30238611164842577    0.2587067628037103    0.24483198785345384    0.25870676280371024    0.302386111648426    
  0.3826707082253183    0.5118208650508721    0.7093107298005504    0.9997853385419257    1.3906792754281254    
  1.8530931550869578    2.3286966618759752    2.758685184080507    3.1268582109579666    3.470690443487158    
  3.8381303702576486    4.220578264217254    4.529243307554998    4.649681341728904    4.529243307554986    
  4.132598633733704    3.8381303702576486    3.5154291077883855    3.197194122961877    2.857886049081358    
  2.460707348270478    2.0064393950223787    1.5420890815072947    1.1279706956311044    0.804320330193659    
  0.5768398273305556    0.42511818455200145    0.32742860990334977    0.2694934442460135    0.2425185504639951    
  0.24251855046399534    0.26949344424601346    0.3274286099033498    0.4251181845520013    0.5768398273305556    
  0.8043203301936593    1.1279706956311046    1.5420890815072947    2.0064393950223787    2.460707348270478    
  2.857886049081358    3.197194122961877    3.5154291077883855    3.8381303702576486    4.132598633733699    
  4.3155055343997235    4.3155055343997235    4.132598633733704    3.7180280926468776    3.470690443487158    
  3.197194122961877    2.8910052514010722    2.5269248993761244    2.1012783764768077    1.6502801210313065    
  1.230434899112216    0.8871958801106306    0.6367991390639424    0.46597092337059176    0.3529699738839452    
  0.28216843077897974    0.2433720831460507    0.23103696567916543    0.24337208314605088    0.28216843077897974    
  0.3529699738839453    0.46597092337059165    0.6367991390639425    0.8871958801106309    1.230434899112216    
  1.650280121031306    2.101278376476808    2.5269248993761244    2.8910052514010722    3.197194122961877    
  3.470690443487158    3.7180280926468776    3.904230133647174    3.9749986942047957    3.904230133647174    
  3.7180280926468776    3.346502582407687    3.1268582109579666    2.857886049081358    2.5269248993761244    
  2.1332809452489836    1.7064535707171233    1.2963993008045789    0.9485973432388601    0.6855864231961087    
  0.5014231716315929    0.3766156974878698    0.29524702540274983    0.24645672325387621    0.22361718670996975    
  0.2236171867099697    0.2464567232538763    0.2952470254027497    0.37661569748786977    0.501423171631593    
  0.6855864231961089    0.9485973432388606    1.2963993008045784    1.7064535707171233    2.133280945248983    
  2.5269248993761244    2.857886049081358    3.126858210957965    3.34650258240769    3.5154008792687734    
  3.6113691662703875    3.6113691662703875    3.5154008792687734    3.346502582407687    2.990877356833594    
  2.7586851840805062    2.460707348270478    2.1012783764768077    1.7064535707171233    1.3191417584663292    
  0.9812598956997199    0.7175460222284474    0.5276954240102364    0.39587391984279924    0.3070574054652066    
  0.2506233368917535    0.21935782876740134    0.20939576321921233    0.2193578287674012    0.25062333689175353    
  0.30705740546520666    0.39587391984279935    0.5276954240102364    0.7175460222284474    0.9812598956997199    
  1.3191417584663292    1.706453570717123    2.1012783764768086    2.460707348270479    2.7586851840805062    
  2.990877356833596    3.161720768218383    3.2700117085128144    3.3077065809238837    3.2700117085128144    
  3.1617207682183843    2.990877356833594    2.593227961969332    2.328696661875975    2.0064393950223782    
  1.6502801210313063    1.2963993008045787    0.9812598956997204    0.7286881783384211    0.5417012014748984    
  0.4084748397328891    0.31602227575762404    0.25465331754770576    0.21729826423570142    0.19968110792548194    
  0.19968110792548197    0.21729826423570128    0.2546533175477059    0.3160222757576239    0.4084748397328892    