#     DFTpy    
  CRYSTAL 
    
  PRIMVEC    
  2.950599987103115    0.0    0.0    
  -1.4752999935515576    2.5552945452373352    0.0    
  0.0    0.0    4.678799979549263    
  PRIMCOORD    
  2    1    
  Ti    1.475305894751532    0.8517563307639606    3.5090999846619457    
  Ti    -1.4752999935448433e-05    1.7035382144733742    1.1696999948873155    
  BEGIN_BLOCK_DATAGRID_3D    
  3d_datagrid_density    
  BEGIN_DATAGRID_3D#0    
  33    33    51    
  0.0    0.0    0.0    
  2.950599987103115    0.0    0.0    
  -1.4752999935515576    2.5552945452373352    0.0    
  0.0    0.0    4.678799979549263    
  0.16085181862033937    0.16116973998740472    0.16145346121945212    0.16220004041729558    0.16365001327493311    
  0.16454141728093952    0.16615130323655855    0.16800546765087723    0.16977978914375613    0.1719624898587977    
  0.17419643787369124    0.17672442710494593    0.1794606134406568    0.18185399577164005    0.18356364564561545    
  0.18482357196239785    0.18519511887229048    0.18482013792441862    0.18355774640016406    0.18184465214763196    
  0.1794468712363528    0.17670893920797606    0.1741834690320182    0.17195385178327596    0.16977387246757714    
  0.16800056147527462    0.1661482677185688    0.16454121120315904    0.1636493623556074    0.16219303290463258    
  0.1614395648782607    0.16115781873517576    0.16085181862033937    0.1611584684364681    0.16116480618280796    
  0.16150069196941916    0.16202746535952206    0.16318997938057428    0.1644207740894606    0.16557222763786217    
  0.16720201936991816    0.1689733475679233    0.17116221866790904    0.17353416107080605    0.17621976446178073    
  0.17896118358755775    0.18162574952493715    0.18374727383042483    0.18535118881283819    0.18611933860324995    
  0.18611789758516997    0.18534781994985364    0.18374196449550462    0.18161661103091717    0.17894833280200936    
  0.17620656180153974    0.17352401830200928    0.17115509531782552    0.16896755131260321    0.16719721947090627    
  0.16557001060866391    0.16442049557846009    0.1631866012108481    0.16201691999168807    0.16148703243949397    
  0.1611584684364681    0.1614388459348244    0.16149068905366076    0.16144811279973564    0.1620268464855009    
  0.16292888481382364    0.16387192643743745    0.165396756915958    0.16704504538864845    0.16872610472135272    
  0.17092712762190687    0.17348427173786812    0.17667835736286636    0.17990338039207301    0.1828113080081615    
  0.18548140132062085    0.18762211705333987    0.18909091061565725    0.18946040160059713    0.18909063030872733    
  0.18762252714773028    0.18548048972308007    0.1828063492501916    0.17989459784104303    0.17666899385658183    
  0.17347654190072184    0.17092050186350874    0.16871984130449716    0.16704008690623073    0.16539464706429943    
  0.16387009168834865    0.16292269180217808    0.16201573947174913    0.1614388459348244    0.16218955883445194    
  0.16201496793204875    0.16201866179291474    0.1621977113229688    0.16319062819216268    0.1638722197712336    
  0.16491097816223008    0.16695530925888216    0.16889754670904086    0.17114536691371576    0.17390064023872454    
  0.1772939101365919    0.1810731583041429    0.18474646278860168    0.1885047830911356    0.19149614254790853    
  0.19388007299680002    0.19522427511677504    0.19522532264403067    0.1938841476485221    0.1915026573738821    
  0.18850962927751957    0.1847460924561065    0.18106792087623297    0.17728722387303325    0.1738944102073486    
  0.17113947957529982    0.1688919067260618    0.16695130938608863    0.16490873705070838    0.16386868029456508    
  0.16318367634948985    0.16218955883445194    0.1636440905520797    0.16318027776404365    0.16291856443264496    
  0.16318434766986387    0.16364942093456622    0.16442089190902218    0.16539540118675924    0.16695317546199678    
  0.168828034812566    0.17113924647384854    0.1744634925709922    0.17820452513959367    0.1823837636032343    
  0.18675519004261032    0.1916715118176882    0.19623552025248073    0.19976381610502553    0.20229610006913953    
  0.20314843462700818    0.20230062086393003    0.19977305720541813    0.19624677978227406    0.19167937974690655    
  0.1867562887215185    0.18237987017290921    0.17820002168161247    0.17446015102216683    0.17113646035411395    
  0.16882512880942213    0.1669505239585322    0.1653924794311855    0.16441662688599237    0.1636440905520797    
  0.16453582229358885    0.1644132807260037    0.16386266861998933    0.16386381110360632    0.16441599714031516    
  0.16453916604827268    0.16556949311717534    0.16704024833338055    0.16889145140578837    0.17113477647100642    
  0.17460144733043767    0.17873630980317776    0.1834818060795701    0.1890191811419026    0.19476345637023224    
  0.20059063014217063    0.20589314108096518    0.20993246245214583    0.21192798197180487    0.21193052863806172    
  0.20994002067096726    0.20590491791977103    0.20060248504850214    0.19476993840012205    0.1890189571598821    
  0.1834792755140808    0.1787361945476493    0.17460374646239155    0.17113671677459888    0.1688911384665167    
  0.16703798815793225    0.1655662161467891    0.16453582229358885    0.16614416418594635    0.16556459253066733    
  0.16538814833192367    0.16490242565409355    0.16538841398975468    0.1655656636625606    0.16614623675728038    
  0.1671963077826182    0.1687180549378062    0.17113531689301473    0.17445460425772666    0.17873188991728137    
  0.18360069915851487    0.1899081642052311    0.19709981725909684    0.20438706973505646    0.21145574748906837    
  0.21745478771191068    0.2211463571918666    0.2223599900738786    0.22115017902350126    0.21746283671751224    
  0.21146659982162574    0.20439574520944734    0.19710262584615595    0.18990711493258036    0.18360197889634194    
  0.17873840027123847    0.17446296215121562    0.17114068202061677    0.16871904954564992    0.16719465152576676    
  0.16614416418594635    0.16799901941284692    0.16719488097504237    0.1670370591466343    0.16694725636087793    
  0.16694616885878327    0.16703515854993936    0.16719416065686918    0.1679990424482253    0.16896587229383955    
  0.1709167851675899    0.17388848608877086    0.1781943121352091    0.18347648346538853    0.18990723011797783    
  0.19763136197112804    0.2064406039086995    0.2152500261915289    0.22312642527857945    0.22894469704173992    
  0.2321349580511706    0.23213556877094718    0.22894756758267848    0.22313268746719866    0.21525745246557337    
  0.2064448786909101    0.19763144309385267    0.18990778192367522    0.18348307745664505    0.17820638864599642    
  0.17390008047884334    0.17092328354389236    0.168967650099246    0.16799901941284692    0.16977563740082643    
  0.16896887695331583    0.16872081704791522    0.16889164383985583    0.16882277360046383    0.16888764572607845    
  0.1687163623494908    0.1689661163203731    0.16977319843683256    0.1711536323824646    0.1734731927112227    
  0.17728294392523328    0.18237657220824788    0.1890175213678855    0.1971018409853843    0.20644265015812546    
  0.21646918600025797    0.22597664042922735    0.23413963969107737    0.23948487233194446    0.24150192850922422    
  0.23948342452130922    0.23413971590826743    0.22597977352037094    0.21647303429349482    0.20644378532794758    
  0.19710159086266366    0.18902135309199772    0.1823872126288335    0.17729695482363036    0.17348450388998887    
  0.1711593718044342    0.16977563740082643    0.1719588093836062    0.17115962473871835    0.170925392650571    
  0.1711433771265794    0.17113728157282765    0.17113385233196424    0.17113599853010966    0.170919004041618    
  0.1711558032456624    0.17195470111064823    0.1735241222532198    0.17666783531680424    0.181065876274891    
  0.18675386970032154    0.19476741445740436    0.204392844956566    0.2152545001000761    0.22597877739300234    
  0.23612554158453955    0.24378914582028638    0.24782050019854177    0.2478179567274023    0.24378424552656475    
  0.23612305315316973    0.22598007196268113    0.21525638186383883    0.20439316703058227    0.19476912734623175    
  0.18676093324129558    0.18107791249276173    0.1766803456146108    0.17353253950727002    0.1719588093836062    
  0.17419030008168718    0.1735302615644603    0.17348379859284688    0.1739019220698711    0.17446486168112008    
  0.1746030249189361    0.17445721072864429    0.17389226857163614    0.1734772477796939    0.1735266680628341    
  0.17418549903667163    0.176208010128867    0.17989444664330162    0.18474385622929204    0.19167553913730606    
  0.20059799452919044    0.21146310377004002    0.2231321532353491    0.23414350962768268    0.2437911896960009    
  0.25016844255849824    0.25254318835014233    0.2501625398029216    0.24378463534256298    0.2341412833492688    
  0.22313367215672583    0.21146504953943376    0.20059981830265772    0.19168000257165066    0.1847526874516879    
  0.1799052363205229    0.17621672061107635    0.17419030008168718    0.17671548807331294    0.17621280949248064    
  0.17667656422287284    0.1772963758959438    0.1782079161297205    0.17873882062541147    0.17873403310871533    
  0.1781969706753798    0.1772861431274887    0.1766707603003084    0.17620951726050207    0.17671055699062244    
  0.17894910959006655    0.1828049175918307    0.18850566571017516    0.1962414134701651    0.20590024274908003    
  0.2174615252028107    0.22895072832923438    0.23949001616759485    0.24782398138132497    0.25254441356460056    
  0.2525410831586095    0.24781671626989826    0.2394849323830677    0.22895064973665388    0.21746428186444555    
  0.20590336193414313    0.19624514316795164    0.18851204280154799    0.1828135528946451    0.17895703243182023    
  0.17671548807331294    0.17945216776894438    0.17895302681086242    0.17990040750294012    0.18107620751408127    
  0.18238892015138744    0.18348504192910448    0.18360122910471213    0.18347577310764404    0.18237603076218292    
  0.18106590601936953    0.17989459883737272    0.1789490018299795    0.17944639738643864    0.18161535618026065    
  0.18547732337324976    0.19149779285751337    0.19976825774219797    0.20993767607721522    0.22115229960043767    
  0.23214108712077658    0.24150734867873025    0.24782131645735908    0.25016336321158095    0.2478162476462452    
  0.24150141535113095    0.23213874986086666    0.221153935567106    0.20994101731961892    0.19977178820040087    
  0.19150271091482896    0.18548434973271022    0.18162292132579744    0.17945216776894438    0.1818496055565237    
  0.18162027393654992    0.18280994625533376    0.18475171192670248    0.18676400443415275    0.18902594871793912    
  0.18990990007539413    0.1899046149335156    0.18901307005364118    0.1867496456589938    0.18474036774648503    
  0.1828023065852415    0.18161387015050082    0.18184225019000017    0.18373954597259473    0.1876192529295571    
  0.19388063109918613    0.20229830956823497    0.21193179980090124    0.22236539594683521    0.23214097993315497    
  0.23948735636757917    0.24378558805257264    0.24378349699737764    0.23948278160750797    0.23213726079336763    
  0.22236427947243192    0.21193305164914972    0.20230034691805215    0.19388362332044828    0.18762457226709822    
  0.1837467898740388    0.1818496055565237    0.1835632975878216    0.18374629531565692    0.18548389984126043    
  0.18851378158266893    0.191685408500111    0.19477678625102565    0.19710763921401742    0.19763224880115665    
  0.19709759179407388    0.19476127689509154    0.19166936753388306    0.18850006193558835    0.18547310124359837    
  0.18373710335962842    0.18355502326001896    0.1853457698808374    0.18908872537260032    0.19522412397431343    
  0.2031496811871824    0.21193380907191928    0.22115483828411353    0.22895153365350487    0.2341414653780946    
  0.23612221494902494    0.23413852026028636    0.2289473595453512    0.2211509181480642    0.21193083892673012    
  0.20314796342767236    0.19522372018729328    0.18909103598475444    0.1853515526877633    0.1835632975878216    
  0.1848245875350174    0.1853530153247634    0.18762752610158653    0.1915081253386563    0.19625343570161038    
  0.20061014405721242    0.20440279444299755    0.20644924658286576    0.2064442718404684    0.20439014981325426    
  0.20059363474590242    0.19623617478527544    0.19149239161099357    0.1876145857330067    0.18534269965576888    
  0.1848176084371387    0.18611617661165836    0.1894595431060091    0.19522581676655354    0.20230242413622598    
  0.2099434284499515    0.2174669474475809    0.2231358014869054    0.2259807004407696    0.2259788353985099    
  0.22313072998121067    0.21746026494564175    0.20993598962042126    0.2022954017220228    0.1952207500822928    
  0.18945761345398604    0.18611854558288965    0.1848245875350174    0.18519511894358212    0.1861210828927224    
  0.1890963167821319    0.19389198831522203    0.19978269090747822    0.20591585681665645    0.21147738677974526    
  0.21526633398718148    0.21647877145855174    0.21525892627250312    0.21146486983804375    0.20590013366089088    
  0.19976610170688847    0.19387689033329328    0.1890842720877846    0.18611288686117772    0.18519201550676942    
  0.18611729379046715    0.18909142871023052    0.19388588127580447    0.1997759835092807    0.20590885599114792    
  0.21147111083949058    0.21526114590524015    0.21647469080478138    0.21525557491138433    0.21146168707224705    
  0.205897836064453    0.19976472586942343    0.1938765935818886    0.18908549732831417    0.18611538748471135    
  0.18519511894358212    0.18481912239607112    0.18611785467157937    0.18946353028716512    0.1952333012654115    
  0.20231236496080912    0.20995452061225525    0.21747886274877096    0.22314783825891746    0.22599252134218548    
  0.22598952851713427    0.22314000646511184    0.21746765775301594    0.20994144250929056    0.20229910421880987    
  0.19522184099897336    0.1894553165812055    0.18611400402541176    0.1848199912738233    0.18534970729664804    
  0.18762533567422754    0.19150644660781088    0.19625167297248383    0.2006083588333552    0.2044021845922051    
  0.20644993788852825    0.206445873288855    0.20439162589571822    0.20059518352674297    0.19623871013510014    
  0.19149566022437364    0.18761775494728908    0.18534521390719885    0.18481912239607112    0.18355809437074125    
  0.1853466871029821    0.18909076565097307    0.19523026046164735    0.20316022347066015    0.2119465018835799    
  0.22116953403873313    0.22896839820691556    0.23415945120513115    0.23614002126808825    0.23415434344230648    
  0.22896002544327132    0.22116026264650018    0.2119373691740946    0.2031516175049645    0.19522353373277893    
  0.18908697535711105    0.18534663704391957    0.18356074338719283    0.18374707885787842    0.1854867062804054    
  0.18851677537259942    0.19168744774591331    0.1947788118882138    0.19711084395115414    0.19763642604665793    
  0.19710195177699977    0.19476539760358033    0.19167450667746755    0.18850698334317395    0.18548033468844288    
  0.18374289476531663    0.18355809437074125    0.18184904227645776    0.18374235710935874    0.18762092862886448    
  0.19388514343258886    0.2023077347622563    0.21194478109831613    0.2223804520762319    0.23215882828359272    
  0.2395073483785739    0.24380643216127754    0.24380329579866697    0.2394994522287053    0.23214992025100986    
  0.22237353207979887    0.21193937843065463    0.2023032186973581    0.1938821403945181    0.18762066840682412    
  0.1837446362402747    0.1818515156029127    0.18162571061188548    0.1828162189116082    0.18475645732594603    
  0.18676720956743895    0.18902932139706818    0.1899141840568371    0.18990934033315748    0.18901765920806243    
  0.1867548154631787    0.18474790280376263    0.18281191291085505    0.18162333163115696    0.18184904227645776    
  0.17945531688257263    0.18162073866902137    0.1854799200192533    0.19150144003826175    0.19977614465346336    
  0.20995016020668275    0.22116725260447062    0.23215785673330488    0.24152592266878478    0.24784125120558714    
  0.2501831699292105    0.24783400004387282    0.2415158094950492    0.23214981315373392    0.22116280141357517    
  0.20994719486379843    0.19977382739508262    0.19150104529548687    0.18548248413570642    0.181624224603636    
  0.17945728546490583    0.17895989915449664    0.17990600981356458    0.1810794446520221    0.18239096611015546    
  0.18348736968442197    0.18360408193821823    0.1834786969510688    0.18237922591996275    0.18107094269047447    
  0.1799026418962075    0.17895878239431343    0.17945531688257263    0.176717878223099    0.1789549609972074    
  0.1828084754876425    0.18850892488792856    0.19624758857488012    0.2059113128918774    0.2174759802302077    
  0.22896652540802784    0.23950654862263965    0.2478416147250506    0.25256263992648886    0.25255800620691654    
  0.24783133518155764    0.23949679262151077    0.22896083100302703    0.21747308012149008    0.20590874691282518    
  0.1962464342798724    0.18851117159714464    0.1828136079042645    0.17895979138688872    0.17672026659220016    
  0.17621727511909308    0.17667891543765268    0.17729710215808966    0.17820859529161745    0.17874025118636094    
  0.17873563451399696    0.17819820004410114    0.17728785158280047    0.17667472309943513    0.17621601529106715    
  0.176717878223099    0.1741896067386208    0.17621214993383102    0.17989783912803142    0.18474717910595775    
  0.1916804257955408    0.20060664268821438    0.2114758788121865    0.22314714891531398    0.23415926916118318    
  0.2438076838489745    0.2501860458746791    0.2525605346510809    0.25017809056399926    0.24379769432599357    
  0.2341522995095602    0.22314365497349214    0.21147287700058884    0.2006039990781104    0.19168127616633737    
  0.1847529688209596    0.17990616192443606    0.17621878216894452    0.17419291237447487    0.17353191851297928    
  0.17348420780175422    0.17390280548606415    0.17446739547842696    0.17460658038425947    0.17446002767559676    
  0.1738936485863858    0.17347857960742602    0.1735295021322795    0.1741896067386208    0.17195753210889794    
  0.17352729103969275    0.1766709663297877    0.18106925465659968    0.18675835324434836    0.19477405486838426    
  0.2044029486817903    0.21526792722530436    0.2259943662090685    0.23614275923434624    0.2438080735883853    
  0.24784037406638962    0.24783699846730867    0.24380078333670327    0.23613669485203165    0.2259914518428598    
  0.21526557222492343    0.20439948949955045    0.19477267437137133    0.18676298553366547    0.181079474284289    
  0.17668184022688588    0.17353446418170201    0.17196097737668245    0.1711614515109567    0.17092840736518852    
  0.17114919218383437    0.17114536743174064    0.17114210483662445    0.17114196102653578    0.17092237411121577    
  0.17115831645600624    0.17195753210889794    0.16977802405067974    0.1711582959952611    0.17347782936692163    
  0.17728732820521995    0.1823810580220381    0.189022898037313    0.19710946056129133    0.20645366514982028    
  0.21648370403252062    0.22599466471692792    0.23416083659329887    0.2395080562973568    0.24152540924164817    
  0.23950525749851556    0.23415833181697615    0.22599471647641198    0.21648427638576315    0.20645155963329043    
  0.19710659484756873    0.189024870184277    0.18239042466559705    0.17730030119006948    0.17348826263556918    
  0.1711636222260946    0.16978009933392121    0.16897468599360208    0.16872997025287464    0.1689040492571367    
  0.1688366591249279    0.16890021281996687    0.16872538958192634    0.16897214683225878    0.16977802405067974    
  0.16800700957385972    0.1689731991442358    0.17092421576452557    0.17389536199226185    0.1781997722045245    
  0.18348094492212172    0.18991238246354467    0.19763934018041462    0.20645257184472907    0.21526685679789975    
  0.22314813377818887    0.228969607564131    0.23216103764855897    0.23216113085492923    0.2289710606715017    
  0.22315214302494976    0.2152718827600076    0.20645451598033823    0.1976373129551604    0.18991156904899406    
  0.18348665952369206    0.1782112538945005    0.17390658785246588    0.17093062606149323    0.16897492990492705    
  0.16800687269434705    0.1672053303891727    0.16705109690773692    0.16696381486786538    0.16696283856219418    
  0.16704911587221594    0.16720446044439155    0.16800700957385972    0.16615540667542603    0.16720460628594902    
  0.16872700354038428    0.1711444572540975    0.17446169823135735    0.17873615729581024    0.1836038996062311    
  0.18991304940932868    0.19710842555698188    0.20440037062786856    0.2114743287884428    0.21747742560360026    
  0.2211710092140635    0.2223847414445551    0.22117409500600566    0.2174843400539948    0.21148332640772366    
  0.20440735057000325    0.19710977370875563    0.18991107630169182    0.18360461214107202    0.17874239469165068    
  0.17447000214030325    0.1711498738325881    0.1687282775703465    0.16720318317886643    0.16615350140454604    
  0.1655768792541139    0.16540393456194818    0.16491974593974618    0.16540401790453108    0.16557766071425345    
  0.16615540667542603    0.16454680615087014    0.16557594432655115    0.16704783102470366    0.16890022208817396    
  0.17114234429220632    0.1746056457554635    0.1787383630512309    0.1834847468168501    0.1890252938428014    
  0.19477324373658744    0.20060397602706484    0.2059097571232347    0.20995115706435719    0.2119473042377219    
  0.21194935895063033    0.2099580479336312    0.20592055193349956    0.20061469744887056    0.19477872738156551    
  0.18902442670660488    0.18348193288541545    0.17873814564215826    0.17460815837480173    0.17114444359138783    
  0.16890024367279385    0.16704600706547962    0.16557304971584164    0.16454381260743642    0.16442513951869664    
  0.16387814605324683    0.1638791992842967    0.1644275420373781    0.16454680615087014    0.1636552851001756    
  0.1644239987863739    0.1653995043307701    0.16695915956261934    0.16883379895656214    0.171142600770536    
  0.17446450949487838    0.1782061392505379    0.18238840039400647    0.1867629975645862    0.1916810484522971    
  0.19624595193658426    0.19977487574452535    0.2023074609235492    0.2031597523667364    0.20231166677643905    
  0.19978360090264632    0.19625662573641928    0.19168840331845938    0.18676362968566    0.18238438232843776    
  0.17820159108414155    0.17446139708001862    0.17114014033267103    0.16883139820367213    0.16695680834282414    
  0.1653969472739745    0.16442024462532992    0.1636503083103925    0.16319162271652957    0.16293257899778002    
  0.16319555316053183    0.1636552851001756    0.1622035145883136    0.16319194008896737    0.16387266657513289    
  0.1649132254011826    0.16695837414950127    0.16889945388488128    0.1711456598642938    0.1739010324856024    
  0.1772970592524136    0.18107924615579735    0.18475377385462344    0.18851133818853302    0.19150149347548165    
  0.19388461907982896    0.19522865798253783    0.1952297762708519    0.19388850909765637    0.19150764328030503    
  0.18851598196397126    0.18475315185964747    0.18107399169614916    0.17729031717007002    0.173894930433412    
  0.171139971464017    0.16889431023601062    0.16695478584681966    0.16491119342536795    0.16386973721421422    
  0.16318534201662727    0.16219566403371638    0.16202585011484394    0.16202940630190218    0.1622035145883136    
  0.16145418027988406    0.16202859976896292    0.1629281554745968    0.1638712551855483    0.1653973367248318    
  0.16704573233536057    0.16872621191558904    0.170926997689184    0.17348579160666674    0.17668231816878704    
  0.17990847748426905    0.18281567891778486    0.18548377985183068    0.18762297364975794    0.189091171236792    
  0.1894607420563205    0.18909090355481967    0.18762316422857203    0.18548283344192035    0.18281055123399184    
  0.17989966891836942    0.17667292979465155    0.17347810634695052    0.17092063917167488    0.16872010205552368    
  0.16704112978613497    0.16539540939229627    0.16386994137880742    0.1629222583962947    0.16201766524409353    
  0.16144519380415545    0.16149926187515726    0.16145418027988406    0.1611690903307662    0.1615027127291682    
  0.16202741920463778    0.1631890152028005    0.1644201301094195    0.16557214992452474    0.1672020384591236    
  0.16897329812404197    0.17116257273582758    0.17353581244913177    0.1762223087886001    0.1789636605531687    
  0.1816270488798937    0.183747182450323    0.18535041979315403    0.18611850254596357    0.18611713169625554    
  0.1853470405261294    0.18374191645552435    0.18161785618319326    0.1789506256456061    0.17620906028892466    
  0.1735256025999691    0.1711557225544806    0.16896767631106235    0.16719732216172298    0.16557002568834142    
  0.164420048680857    0.16318585142845626    0.1620169086812327    0.1614892588354647    0.16116282390643907    
  0.1611690903307662    0.16085181862033937    0.16116973998740472    0.16145346121945212    0.16220004041729558    
  0.16365001327493311    0.16454141728093952    0.16615130323655855    0.16800546765087723    0.16977978914375613    
  0.1719624898587977    0.17419643787369124    0.17672442710494593    0.1794606134406568    0.18185399577164005    
  0.18356364564561545    0.18482357196239785    0.18519511887229048    0.18482013792441862    0.18355774640016406    
  0.18184465214763196    0.1794468712363528    0.17670893920797606    0.1741834690320182    0.17195385178327596    
  0.16977387246757714    0.16800056147527462    0.1661482677185688    0.16454121120315904    0.1636493623556074    
  0.16219303290463258    0.1614395648782607    0.16115781873517576    0.16085181862033937    0.1605434651917553    
  0.16078990445876748    0.16142318200467587    0.16219344805526445    0.1632145969869997    0.16449213450152755    
  0.16631039370665898    0.16801458262081218    0.16995931718194207    0.1725196309238823    0.17534720953422805    
  0.17824546992016688    0.18089257617351065    0.18329975919537006    0.1851662961542086    0.18644300866586777    
  0.18682036609058844    0.18643955147449034    0.18516019805906206    0.1832901099444044    0.18087846572487123    
  0.178229633364915    0.1753338522478077    0.172510672112027    0.1699531924860902    0.16800940245412263    
  0.16630718362507974    0.1644916705576249    0.16321392462429718    0.16218634747126445    0.16140902667506937    
  0.16077792074633807    0.1605434651917553    0.1607785771000042    0.16078491350057192    0.1613384546682944    
  0.16198843077734904    0.16306264280853028    0.1643753613739519    0.1654406675667798    0.1670744694456422    
  0.16916201606876505    0.17115121550740595    0.1734643608448045    0.17627907363261427    0.1788933312311948    
  0.18147618485180209    0.1835757984328784    0.18520606774457432    0.18591560924751283    0.18591407829823425    
  0.1852023149814088    0.1835699281412254    0.18146640099239403    0.1788798586820525    0.1762655789212607    
  0.17345407711644245    0.17114412917082386    0.16915595424497934    0.16706905676514625    0.16543782954260033    
  0.16437472470757641    0.1630591152914158    0.16197749795958635    0.16132460331609833    0.1607785771000042    
  0.1614083178410938    0.16120280503707463    0.16141769108658094    0.1619875996289202    0.16282377114875754    
  0.16412983126722175    0.16545366952349946    0.16678050837020897    0.1687678483698398    0.17099908384930285    
  0.173046898215382    0.17550273506293226    0.1781357994564519    0.18100782048097683    0.18369005529997773    
  0.18559016898201855    0.1868146882945879    0.18709924817247442    0.18681410035111334    0.18558987272224844    
  0.18368830966781802    0.18100198367906123    0.17812646408865285    0.17549324954752255    0.1730390817580767    
  0.17099217098989497    0.16876081829530518    0.16677460313097262    0.165450780899852    0.16412765823894843    
  0.16281736895481083    0.1619763240920212    0.1614083178410938    0.16218288445952955    0.16195625447327155    
  0.16196005503306846    0.16219103866150614    0.16306303005154976    0.16412992909065918    0.16521534554827613    
  0.16680724238698583    0.16863597166406666    0.1705578007267672    0.17293623338135894    0.1757876698883166    
  0.17890676055489457    0.18201487531362817    0.18500132527675775    0.18741517041859806    0.1891653779470636    
  0.19012020308553065    0.19012114645207906    0.18916899333163126    0.1874207579645029    0.18500513419480527    
  0.1820135472821577    0.1789008998722987    0.17578059382236966    0.17292944022847856    0.1705510656247463    
  0.16862924618411365    0.16680211794631444    0.16521236811016493    0.16412625349753865    0.1630562005395183    
  0.16218288445952955    0.16320866545089396    0.16266939554827053    0.16260473435899925    0.16267331316496447    
  0.1632136919915522    0.1643749050845238    0.16545184493182058    0.1668050056282029    0.16873680601324484    
  0.17068263916931528    0.1730258862837374    0.17603343331100516    0.17963419827494778    0.18354609252642062    
  0.1870808021543317    0.19025439353139528    0.19282717198937818    0.1944178429194073    0.19502940135680116    
  0.19442205824252018    0.1928357793067511    0.19026453996748266    0.18708744105196165    0.1835458372383695    
  0.179629192066916    0.17602805467933563    0.17302162089785483    0.17067870092083323    0.16873255867134326    
  0.16680133917113185    0.16544862337619878    0.1643708670735544    0.16320866545089396    0.1644862975218787    
  0.16384154018312685    0.16366321708492282    0.1636640902794105    0.16384377274217318    0.1644891779700559    