#     None    
  CRYSTAL 
    
  PRIMVEC    
  4.1604539101422    0.0    0.0    
  4.82784062721336e-07    6.39466880013682    0.0    
  1.73381485086629    2.263290305082836e-07    4.40252700805406    
  PRIMCOORD    
  10    1    
  Ga    4.036460308754025    3.197334548500198    2.8872785566451213    
  Ga    4.263752263830818    4.806125656275376    4.3892535919653355    
  Ga    4.263752020910131    1.588543595154761    4.3892535919653355    
  Ga    0.7399571468805431    4.450052146209993    1.227425267129551    
  Ga    0.7399569577254356    1.9446167801279706    1.227425267129551    
  As    4.177044356603113    1.264318377637588e-07    2.4593379787949257    
  As    0.6377699053516486    1.9377582018665095e-09    0.03769305598860568    
  As    1.8397007651207486    3.197334603609152    3.9592517690193345    
  As    2.4661722030905238    4.68491633953633    2.5693153228720664    
  As    2.46617197847192    1.7097527247717905    2.5693153228720664    
  BEGIN_BLOCK_DATAGRID_3D    
  3d_datagrid_from_pbcpy    
  BEGIN_DATAGRID_3D    
  17    27    19    
  0.0    0.0    0.0    
  4.1604539101422    0.0    0.0    
  4.82784062721336e-07    6.39466880013682    0.0    
  1.73381485086629    2.263290305082836e-07    4.40252700805406    
  0.07031350690112871    0.04960131790949485    0.03327855669919446    0.034726657917305996    0.054412406314394555    
  0.07656639715008748    0.06679533824245677    0.04784140334638641    0.037189847492629574    0.03159580878372367    
  0.02872205781097469    0.027423045298009235    0.028041846848858368    0.03231668873946669    0.042631776588440466    
  0.06178840197267064    0.07031350690112871    0.07224916472389349    0.057174251644092615    0.04184291672054695    
  0.04341832632671245    0.06225207519947914    0.07853376166443    0.06534485605236078    0.04797753001334562    
  0.03823019163380973    0.03304659691390733    0.030201276963765074    0.02875596304770326    0.028989388654737873    
  0.032607898885492086    0.04194175504234002    0.059739923717869896    0.07224916472389349    0.07113145555557455    
  0.07348671949558444    0.0657115438208923    0.06761064865595844    0.07869423390811965    0.07762346214313766    
  0.061560839665734286    0.048620933138599866    0.041393489740481    0.03740921685289776    0.034698609640396734    
  0.032707147154574914    0.031845222037788126    0.033673555302577936    0.04033323990111947    0.05408703548417697    
  0.07113145555557455    0.060893329213536955    0.07403699030640298    0.08004425247274861    0.08191519490380923    
  0.07909390756119476    0.06865949116573997    0.05743272623530817    0.050247470041108404    0.04554437554160988    
  0.041292980785269835    0.03840606496248827    0.037189024843389214    0.03614021976792464    0.03576906616147205    
  0.03881466637171308    0.047244407519871294    0.060893329213536955    0.04978422799336192    0.05949240485775693    
  0.06691037278354466    0.06874699747461521    0.0649808673524945    0.059121717428345856    0.05475655811911079    
  0.05142938690718463    0.04416757633925624    0.035854054656163495    0.03258540587189703    0.03483774918052551    
  0.03841977185983148    0.038509709492928416    0.03828481601782082    0.04198721485570485    0.04978422799336192    
  0.04328339203916284    0.04899413821307714    0.05381406474382855    0.05561499867986266    0.05481822088711112    
  0.05340894000441913    0.05352794986817361    0.04932314812451415    0.036307878385344265    0.025552208900670167    
  0.02264790679204473    0.026931196397371352    0.03598479678794957    0.04056534385507882    0.03903872600949264    
  0.03940149372958885    0.04328339203916284    0.04161114237219787    0.04516822241886271    0.048515081717271154    
  0.04990876253765286    0.05020709469316166    0.05081894656188263    0.052756558702967214    0.04623268683592646    
  0.030542227587049622    0.01971326631579598    0.01720440104823283    0.022121353093914917    0.0334429232766882    
  0.0419919942846871    0.04087290469124349    0.03957741155916046    0.04161114237219787    0.04410717448946019    
  0.04677406316816723    0.048910069605220444    0.04930056501643856    0.049087490737453006    0.04961616217741128    
  0.05184432708184035    0.04595847563865755    0.030824343181273663    0.020251180687624555    0.017955513867069985    
  0.023293248464738764    0.03537037874548283    0.044588590537541384    0.0437128496978255    0.04242646069075172    
  0.04410717448946019    0.05112281673496405    0.053512867762955725    0.05401529986001909    0.05219729373096934    
  0.04973688016334974    0.04858392996764814    0.04988871557442368    0.0477375390062254    0.03687770355653702    
  0.027281448441596724    0.025257641343466655    0.03096434456272453    0.042140384626004064    0.04848310656173026    
  0.04786941287436366    0.04848756029158635    0.05112281673496405    0.06366008548218102    0.06600126678599143    
  0.06376926325079585    0.0580167395288848    0.051612000421094546    0.04737932039864671    0.04643059522646867    
  0.04702884456410075    0.04384960072120439    0.03855665167730051    0.03751488640176133    0.04232437816177081    
  0.04894565409342058    0.05193236576502532    0.05413381870190818    0.05867034452761029    0.06366008548218102    
  0.0800937320026821    0.08236136999436086    0.07748228692266108    0.06631564390293573    0.054546885109894354    
  0.04633168069113301    0.04256955611463103    0.042343695554694985    0.04333066052551512    0.04368792202812412    
  0.04454730221312332    0.046999222814139895    0.05021025125599602    0.05493437478175279    0.06296793869722127    
  0.0727650985098113    0.0800937320026821    0.08417414012366516    0.08692909624223095    0.08731059119980927    
  0.07518715180569191    0.05811763400715867    0.04589955558790247    0.03946539567182995    0.03741315279286142    
  0.03782417210142313    0.039292371016262276    0.04106322123099179    0.0436997939118868    0.04879169348056963    
  0.0584943302953756    0.07234702324783622    0.08230916362691448    0.08417414012366516    0.07071310199052254    
  0.07392334057304165    0.08478872728228913    0.0804821074181937    0.061112038411049514    0.04590960117854884    
  0.037632705911962286    0.034335893432573664    0.0338532657626615    0.034861933186719485    0.036850772438295244    
  0.040611318095375035    0.04805966420604313    0.06167014010562163    0.07754924782267376    0.07839730323947368    
  0.07071310199052254    0.06317537877296872    0.06647991903613056    0.08095511061932181    0.08157222115281536    
  0.06235646617040447    0.045963320366729274    0.03706470501742972    0.03330317302746374    0.03251972723452932    
  0.03338275464157403    0.035470110146898146    0.03958951385556706    0.04788477035715949    0.06293463146463417    
  0.07837708990846876    0.07386665036562755    0.06317537877296872    0.07071309550616062    0.0739233368693202    
  0.08478873010688552    0.08048209556803608    0.06111203526606786    0.045909592682069914    0.03763270305913807    
  0.034335895479495344    0.03385326484998006    0.03486193467733471    0.036850771702984585    0.04061131740307954    
  0.04805966742879932    0.06167013773497864    0.07754923241424849    0.0783973027571653    0.07071309550616062    
  0.08417414164523933    0.08692910529031171    0.08731058560570072    0.07518714054538131    0.05811762495250643    
  0.0458995520718042    0.03946539388478776    0.037413143450570834    0.03782416990718068    0.03929236455276162    
  0.04106322354274086    0.0436997986208839    0.04879169336678431    0.05849434001543105    0.07234702943264591    
  0.08230917341376648    0.08417414164523933    0.0800937266783254    0.0823613670544922    0.07748226455243584    
  0.06631563826862262    0.054546867752563406    0.04633167217477958    0.042569548221080854    0.04234369110000055    
  0.0433306571045277    0.043687924224438485    0.044547307658421256    0.04699922451235298    0.05021025451120025    
  0.054934384274031516    0.0629679400362484    0.07276508539033905    0.0800937266783254    0.06366007767054105    
  0.06600125980291732    0.06376925137067055    0.05801673173362772    0.051611993667068194    0.04737931547967571    
  0.04643060364052741    0.04702884008444245    0.04384959781196417    0.03855665370927393    0.03751488853366985    
  0.04232437345309069    0.04894565350468347    0.051932368022831736    0.05413381740965514    0.05867034138348609    
  0.06366007767054105    0.051122821682906626    0.053512863156530296    0.05401528960658321    0.052197291515622156    
  0.04973687938167175    0.048583921929899986    0.049888708122089225    0.04773754712850447    0.03687769676357672    
  0.0272814522760572    0.02525764412143139    0.03096434178224934    0.042140388137277995    0.04848311751125492    
  0.0478694164384713    0.0484875570250384    0.051122821682906626    0.04410717390338751    0.04677406045644256    
  0.048910066348068645    0.04930055033653757    0.04908749488047301    0.04961616155160866    0.05184432712297808    
  0.0459584759073161    0.03082434245152222    0.020251182725035535    0.017955512791937685    0.02329324795347336    
  0.03537037631547548    0.044588590610002476    0.043712851392609824    0.04242646212894391    0.04410717390338751    
  0.04161113451771374    0.0451682240987705    0.04851507745348697    0.049908765636293095    0.050207096233869375    
  0.05081894836950669    0.05275655879651011    0.04623268349154767    0.03054222658200699    0.019713263619324118    
  0.017204400018673533    0.022121355861097553    0.033442924867703325    0.04199198664280243    0.04087290683207339    
  0.039577407402645905    0.04161113451771374    0.04328339451532546    0.04899413408700016    0.053814062532949375    
  0.05561500378941061    0.05481822065104712    0.05340894129237534    0.053527962994063864    0.049323149819270246    
  0.03630788347348718    0.025552207877993012    0.022647909871459794    0.026931196572847517    0.0359847981242607    
  0.04056534237753357    0.03903871854201323    0.03940148502234621    0.04328339451532546    0.04978422362972088    
  0.05949239299933379    0.06691038460012977    0.06874701257148076    0.06498087737586626    0.05912173800922492    
  0.05475656368172116    0.05142939295359444    0.04416757447658703    0.035854054135915824    0.03258541004077106    
  0.0348377513024583    0.038419767545237876    0.03850970994889854    0.03828481470706025    0.04198720766067277    
  0.04978422362972088    0.06089331969268695    0.074036991474269    0.08004424226684882    0.08191519256303005    
  0.07909391588640186    0.06865948735332164    0.05743273500137668    0.05024747499213957    0.0455443855509313    
  0.041292983464350404    0.03840607084621211    0.037189029166036905    0.03614021428952787    0.035769063892366844    
  0.038814657837710265    0.047244398448969244    0.06089331969268695    0.07113146489960313    0.07348672373645229    
  0.06571154196226285    0.0676106383788098    0.07869423629212478    0.07762346718456317    0.06156084983898067    
  0.0486209429519779    0.04139349387590017    0.0374092153159464    0.03469860839278266    0.0327071487491291    
  0.031845212279339015    0.03367354864882257    0.04033323898967452    0.05408702520057482    0.07113146489960313    
  0.07224916894544836    0.05717426113296124    0.041842922218918034    0.043418328139657666    0.06225207198094927    
  0.07853376439607136    0.06534486527113231    0.04797753595985612    0.03823019378022911    0.03304659504661952    
  0.030201277651264357    0.028755963632906043    0.028989387060314068    0.03260789404272814    0.041941751150906335    
  0.05973991936166095    0.07224916894544836    0.07031350690112871    0.04960131790949485    0.03327855669919446    
  0.034726657917305996    0.054412406314394555    0.07656639715008748    0.06679533824245677    0.04784140334638641    
  0.037189847492629574    0.03159580878372367    0.02872205781097469    0.027423045298009235    0.028041846848858368    
  0.03231668873946669    0.042631776588440466    0.06178840197267064    0.07031350690112871    0.06847789556741235    
  0.04786243879972807    0.03782056063998256    0.04561851282862938    0.06794164266267518    0.07399542889785783    
  0.05508272119291477    0.03977247785652774    0.03158764762876842    0.027474493929275035    0.02551483731071859    
  0.02532204869140023    0.027506571739905124    0.03395071601203677    0.047395822968980865    0.06760428205508558    
  0.06847789556741235    0.07213717212422815    0.055959646031895835    0.04649211464322201    0.05437696215262623    
  0.07331773555688346    0.07341065645067137    0.054315649157965266    0.04041585936816221    0.03281063226195314    
  0.028949954000656815    0.026910512046178614    0.026515701393736817    0.028216167875174544    0.03399644055678071    
  0.04618528453676356    0.06586690431964544    0.07213717212422815    0.07491761952504115    0.0745260553143608    
  0.07009878455445502    0.07560479322942769    0.08060784881837657    0.06926676925964644    0.05283551492932321    
  0.04236249571957993    0.03653607037652215    0.033314198455379807    0.03113560450901682    0.02998590325272076    
  0.030430872383181484    0.03423781377830039    0.04338075439423648    0.05970481673181416    0.07491761952504115    
  0.06597457523856888    0.07779006942359591    0.0825058374954509    0.08221237371399216    0.0746950714575785    
  0.06221544675054374    0.05196013811155648    0.04574391253765579    0.04148649660091192    0.037985415945728226    
  0.03594444903397227    0.03485340465119223    0.03407319717062876    0.03515784971812032    0.040444548858650294    
  0.05121104137263956    0.06597457523856888    0.05387893667359238    0.06371731921850646    0.06957462812637558    
  0.0688888768453901    0.06324021532308938    0.05673283596452376    0.05236619475177446    0.0482496065540728    
  0.04106742718594843    0.034903203026610354    0.03371297039612972    0.036217093977312015    0.03764767512095375    
  0.03699188896925805    0.03858804912598588    0.044449325506927116    0.05387893667359238    0.04672833099632946    
  0.05338449852520793    0.05776862557825298    0.058416239688030704    0.05628496084184531    0.05425567631503808    
  0.05325038861238872    0.04662217019934651    0.03418498864318452    0.02630946756937554    0.025922877789716973    
  0.031945611080839285    0.03869512568829236    0.03922387143052089    0.03831524096209746    0.04099090053806232    
  0.04672833099632946    0.04462303628937125    0.049632715385844364    0.05302501101091901    0.05402134927455563    
  0.05352698013088748    0.05372082474640657    0.05353386902870819    0.043818921349537236    0.02904902580322364    
  0.021082133586875034    0.021097035329063214    0.028348131139397832    0.03848501898216764    0.04131346175015212    
  0.039446274254328714    0.04065709822959817    0.04462303628937125    0.046510720349636665    0.050691662004075856    
  0.05284383444820386    0.053180975560019945    0.052783488496932984    0.05318005939801616    0.05322332466786125    
  0.043945246684790266    0.02948740000820755    0.021661335935615946    0.021895548290948304    0.029565128095118128    
  0.040245355560256844    0.043374052571848155    0.04167323504429273    0.04286185568655309    0.046510720349636665    
  0.051797458067401436    0.055344480836532955    0.055855309182934784    0.054281443324897455    0.05232639122562482    
  0.051281299091770836    0.05137775660048491    0.046320648622697316    0.0352479687602406    0.02812981283909075    
  0.028560711591609177    0.035825119425282714    0.04394250854364663    0.045335173962229865    0.04497861652326323    
  0.04751218336504776    0.051797458067401436    0.06062766489255283    0.06351388027746942    0.06173498246355946    
  0.05690697249187641    0.051728053249120255    0.0480314961105853    0.04684461790289477    0.04582354260392076    
  0.04160306112584325    0.03759464982254631    0.03818464015948214    0.04260760167219447    0.04598576477872508    
  0.047030412985656425    0.04979196165566887    0.055014046802622125    0.06062766489255283    0.07251113693825037    
  0.0742221645025798    0.06916118461035141    0.059975969292620335    0.050829302783125446    0.04427429397537921    
  0.04103150083267968    0.04034085678222948    0.04037259250275327    0.04028128870329676    0.04106205111899302    
  0.04271943005779168    0.044916334909553365    0.04911061737923851    0.05639135654705198    0.06535654684915776    
  0.07251113693825037    0.08309955312731943    0.08423773908600528    0.07637505252302243    0.0628012374735043    
  0.04998384250457936    0.04100341311816175    0.03609700466174495    0.03426510837290746    0.03424088629683319    
  0.03504366612420791    0.036347192850931645    0.03870877908161291    0.04341250271498092    0.05184292637372037    
  0.06378509213656779    0.07561621099928215    0.08309955312731943    0.08534541510825838    0.08760113993209596    
  0.08085949886360493    0.06486094129955716    0.04943832032622174    0.038927020487502184    0.03299373043599798    
  0.030411876404096674    0.029845475812059735    0.03051490820204355    0.03224329355003647    0.03583001232837257    
  0.04272778843899777    0.0543746246827928    0.06917052051414573    0.08027434883546093    0.08534541510825838    
  0.08396494078464355    0.08699316155287501    0.08196925064368307    0.06566500140840331    0.049278707297641944    
  0.03822913212053479    0.031961346146828884    0.02912168717171156    0.02836057837022785    0.029000635851065937    
  0.030859971193244403    0.03485476647534896    0.042568059284726255    0.055414382361422335    0.07087999433556193    
  0.0804957194343113    0.08396494078464355    0.08534540865250857    0.087601130112138    0.08085949586176713    
  0.06486092971920585    0.049438311695410755    0.03892701354501803    0.03299373003047017    0.030411877722567527    
  0.029845474754992947    0.030514907048378455    0.032243290665398196    0.035830012981737824    0.04272779423953683    
  0.05437462895861403    0.06917051698897286    0.08027435336644755    0.08534540865250857    0.08309955110339846    
  0.08423773424771637    0.07637504738426242    0.06280122698098646    0.0499838329922212    0.04100341364978889    
  0.036097005428452435    0.03426510175623951    0.03424088867440945    0.03504366694483296    0.03634719063899372    
  0.03870878543911307    0.04341250339784258    0.051842933657033664    0.0637850924927625    0.07561621684051856    
  0.08309955110339846    0.07251112902614139    0.07422216185521892    0.06916116590188487    0.05997596187814617    
  0.050829295858535115    0.04427428576679609    0.0410314909855419    0.04034085234284306    0.04037259310846063    
  0.0402812887750547    0.041062049585850274    0.04271943724943367    0.04491633924863196    0.049110619616174585    
  0.05639136026637899    0.0653565368151852    0.07251112902614139    0.06062766119826646    0.0635138800255116    
  0.06173497735055837    0.05690696599574091    0.0517280551347934    0.04803149295136963    0.04684462714797612    
  0.045823540899104155    0.04160306044238453    0.03759464510411759    0.03818463905718669    0.042607601693236415    
  0.0459857669144338    0.04703041296235388    0.04979196244554983    0.055014047133770894    0.06062766119826646    
  0.05179745595623655    0.05534448024907529    0.05585529920213938    0.054281445692415095    0.05232638997887001    
  0.05128128781904566    0.051377754185508544    0.046320657522828566    0.03524796025874387    0.02812981356592195    
  0.028560711563773662    0.035825118212764094    0.04394251299054395    0.04533518104168034    0.04497862089672676    
  0.04751218443571897    0.05179745595623655    0.0465107153799602    0.05069166092852113    0.05284382908726775    
  0.05318096467934798    0.05278348360188992    0.05318005569131418    0.0532233228139515    0.04394525342199709    
  0.02948739792586445    0.021661336603210908    0.021895548351389172    0.02956512692063017    0.04024535223317268    
  0.04337405307563206    0.04167323180860447    0.0428618531797967    0.0465107153799602    0.044623034597909006    
  0.04963271913942634    0.0530250096994765    0.05402136071356647    0.05352698177831331    0.053720831139010244    
  0.053533862903361464    0.043818916300520504    0.029049029884120205    0.021082131663606653    0.021097033650583002    
  0.028348132892374665    0.0384850171863509    0.04131345626115208    0.03944627426212508    0.04065710006822188    
  0.044623034597909006    0.046728341537149    0.05338449405683293    0.05776862687827278    0.05841623697791877    
  0.05628496209215787    0.05425567899454586    0.053250393568267745    0.046622176818476635    0.034184997729031406    
  0.02630946849234424    0.02592287882544828    0.03194561250405327    0.038695129694925265    0.039223867457561915    
  0.038315234997732414    0.04099089656606673    0.046728341537149    0.05387893755464435    0.06371731301848708    
  0.0695746385770181    0.06888889206997226    0.06324022222641512    0.05673285225863804    0.05236620257345189    
  0.04824960016519955    0.04106742773913404    0.03490320894974789    0.03371297290830502    0.03621709730773909    
  0.03764767195691666    0.036991887065366484    0.03858804832217469    0.04444931901694757    0.05387893755464435    
  0.06597456397033759    0.07779007320228865    0.08250584537227193    0.08221238183490244    0.07469508207552678    
  0.062215451111418865    0.051960153864899314    0.04574391157477155    0.04148650026262629    0.037985418993076545    
  0.035944451165438325    0.034853410650842284    0.03407318799105405    0.035157845149840536    0.04044453951752306    
  0.05121103517952817    0.06597456397033759    0.07491762765827494    0.07452605120029578    0.07009878877319395    
  0.07560478569994022    0.08060785463042659    0.0692667755122208    0.05283552133359862    0.04236250051698894    
  0.03653607100672453    0.03331420332549868    0.03113560104641344    0.029985901936881464    0.030430869150732516    
  0.034237809840424134    0.043380755261938575    0.05970481358317824    0.07491762765827494    0.07213717092881336    
  0.05595964867304106    0.04649211033045444    0.054376964603148774    0.07331773859999975    0.07341066529718863    
  0.05431565407465093    0.04041586247392272    0.032810631036698866    0.02894995325097213    0.026910512750890073    
  0.026515704396581654    0.028216167872970207    0.03399643988158598    0.04618527954311891    0.06586689589694832    
  0.07213717092881336    0.06847789556741235    0.04786243879972807    0.03782056063998256    0.04561851282862938    
  0.06794164266267518    0.07399542889785783    0.05508272119291477    0.03977247785652774    0.03158764762876842    
  0.027474493929275035    0.02551483731071859    0.02532204869140023    0.027506571739905124    0.03395071601203677    
  0.047395822968980865    0.06760428205508558    0.06847789556741235    0.07487679671972342    0.06407004958975332    
  0.06095516091254746    0.07052636400207282    0.07480066805901006    0.05937513247904632    0.04208791645017016    
  0.03191373323724114    0.026463932075067868    0.023891263832486218    0.023012579353254715    0.023912457014564535    
  0.02733381952216398    0.035243973918723845    0.0498379747624984    0.06960383316556355    0.07487679671972342    
  0.07711049559696923    0.07069559352633924    0.06822418259768098    0.07541117775359371    0.07479063885168694    
  0.0581895330336677    0.04217202034368175    0.03274862078361965    0.027686566093429867    0.02517813351236967    
  0.02418463265800667    0.024800205719838774    0.027763957649682074    0.03496155356777518    0.048421086298710676    
  0.06759372222316677    0.07711049559696923    0.076484790658226    0.08145527242258814    0.08180861917354673    
  0.08129310889367755    0.07140424196199147    0.05528218468474981    0.04276918774863802    0.03537027585917593    
  0.03132084467196493    0.029006253904545698    0.027668085190144378    0.027456742583060325    0.029192851723464565    
  0.03444344797937444    0.04497771689376508    0.06118422569938081    0.076484790658226    0.06670068635470272    
  0.07720144314483861    0.08022224067170773    0.07521287542179812    0.06411896140417987    0.052609691242133085    
  0.04454049006571687    0.03983467907012016    0.03682889514299423    0.03454573661871052    0.03290708937893616    
  0.03172797163852396    0.031688271597042725    0.034357564781425744    0.04123527392511438    0.05279130850320106    
  0.06670068635470272    0.05627833502513618    0.06491985408610361    0.06830109410743969    0.0651969413857008    
  0.05840024240365719    0.05187052085627032    0.047722382439948856    0.04443104181766033    0.04008397874450327    
  0.03676339750859199    0.036064413609501904    0.03597829840585183    0.03495410548912838    0.03512071256249997    
  0.0387715814442884    0.04630976643012329    0.05627833502513618    0.05071805288245575    0.05745645705756434    
  0.06058833160134083    0.05966081348547749    0.05635598027776265    0.053266939060942604    0.051160301679311966    
  0.04594547120515212    0.037710704945808665    0.033087190032187797    0.034036023402125755    0.03746960546241972    
  0.037981105431903535    0.036680175692873226    0.03815716341245712    0.043260766754285813    0.05071805288245575    
  0.049224568559336636    0.05362221378326516    0.055400778145177965    0.05627353032741866    0.05614054699083822    
  0.0552730761518413    0.053441770928547995    0.04543132494854011    0.034634064344831045    0.02955916979930072    
  0.03134773963859683    0.03726335024458002    0.04000661338624334    0.038549676552974387    0.03906502882609653    
  0.04323217966429111    0.049224568559336636    0.0500573738216138    0.05144561292407072    0.051157761474065616    
  0.05279681144049936    0.05519233413511831    0.05572245279491476    0.05406428447558147    0.046073112771338375    
  0.035293285009601126    0.030288773311000338    0.03224150755724824    0.03841039584698797    0.04137020240334734    
  0.040144437984732016    0.0409189203682335    0.04520552401364483    0.0500573738216138    0.0531383410044987    
  0.05270313884674531    0.050682973474012266    0.051351590550282065    0.05351274207115201    0.05350403101846368    
  0.05194001586295221    0.04710922961312104    0.039354775120508875    0.03516268176874584    0.03664355938827037    
  0.04071962817054995    0.041826897801956614    0.041197187164928296    0.0433279791664958    0.048545267038343026    
  0.0531383410044987    0.05880288632950838    0.05870947290097716    0.05537578983982534    0.05321687120656584    
  0.05172846196853629    0.048939350826418794    0.046466758400098056    0.044506713237148283    0.04155019986718741    
  0.03941539442608672    0.03975130817281299    0.04069216107271671    0.04072813335427724    0.04196317295116908    
  0.04627520878616789    0.053092188743930124    0.05880288632950838    0.06537089934083985    0.06628097670217789    
  0.06166878711913692    0.055397886822302886    0.04898919510923728    0.04325630658936928    0.039546817848726254    
  0.0378984387682338    0.037209025150318806    0.036835946574182946    0.03684124062462269    0.03727415778506413    
  0.03888183456204999    0.04294878194703444    0.049923974557626795    0.05854048797686915    0.06537089934083985    
  0.07091343914633721    0.07105544425438372    0.06453091246668616    0.05480897123494764    0.045309756195042045    
  0.03806307505667093    0.03358805791112142    0.03146174737939566    0.03080015692557174    0.03092897087222756    
  0.03167030166876105    0.033534981234161876    0.03746195083404488    0.04434686563005401    0.053943332055783354    
  0.06407343443731849    0.07091343914633721    0.07453207497322564    0.07314922331113835    0.06451273292090179    
  0.05298271734347132    0.042353242971939827    0.03458121361977949    0.029811983339339976    0.027411320669404406    
  0.026617517726840324    0.026893100472031844    0.028241717528684526    0.03121117783352341    0.03676740644983375    
  0.04569562075885384    0.057197808662465745    0.06818080382696932    0.07453207497322564    0.075693243654145    
  0.07387730702954501    0.06440167965643605    0.05221122643388382    0.04127397349680659    0.033373019571656524    
  0.028548850869588457    0.02605871926195203    0.025211340544518488    0.025528734851074573    0.0270844266409269    
  0.030447440148477854    0.036595956378244386    0.04625485339557671    0.058447748291400675    0.06960985372033604    
  0.075693243654145    0.07453206867438142    0.0731492118687003    0.06451272368130663    0.052982710364154376    
  0.04235323834346595    0.03458120934508515    0.02981198329003302    0.02741131881580055    0.02661751534077664    
  0.026893102861728437    0.028241721969502545    0.031211180327889564    0.03676740567319423    0.045695615371965696    
  0.057197794856679626    0.06818079779851915    0.07453206867438142    0.0709134357098877    0.07105544440751535    
  0.0645309079866289    0.05480896550062426    0.04530975737428584    0.03806307372970612    0.03358805852432825    
  0.031461741770690686    0.030800156404227157    0.030928968380228142    0.03167030713800078    0.033534989904162295    
  0.03746194747996998    0.044346872422854726    0.053943327804299286    0.06407343354054718    0.0709134357098877    
  0.06537089487720245    0.06628097430802403    0.0616687749689568    0.05539788917176758    0.048989184824284764    
  0.04325630365183017    0.039546812268633415    0.037898436966116666    0.03720902800584858    0.03683595131155426    
  0.03684124064886209    0.037274160304375734    0.03888183857885001    0.04294878811515688    0.049923974521050796    